VARIABLES="X","Y","U","V""P"
ZONE  F=POINT
I=20, J=20
0.00000000	0.00000000	1.00000000	1.00000000	1.00000000
0.00000000	0.10526316	1.00000000	1.00000000	1.00000000
0.00000000	0.21052632	1.00000000	1.00000000	1.00000000
0.00000000	0.31578947	1.00000000	1.00000000	1.00000000
0.00000000	0.42105263	1.00000000	1.00000000	1.00000000
0.00000000	0.52631579	1.00000000	1.00000000	1.00000000
0.00000000	0.63157895	1.00000000	1.00000000	1.00000000
0.00000000	0.73684211	1.00000000	1.00000000	1.00000000
0.00000000	0.84210526	1.00000000	1.00000000	1.00000000
0.00000000	0.94736842	1.00000000	1.00000000	1.00000000
0.00000000	1.05263158	1.00000000	1.00000000	1.00000000
0.00000000	1.15789474	1.00000000	1.00000000	1.00000000
0.00000000	1.26315789	1.00000000	1.00000000	1.00000000
0.00000000	1.36842105	1.00000000	1.00000000	1.00000000
0.00000000	1.47368421	1.00000000	1.00000000	1.00000000
0.00000000	1.57894737	1.00000000	1.00000000	1.00000000
0.00000000	1.68421053	1.00000000	1.00000000	1.00000000
0.00000000	1.78947368	1.00000000	1.00000000	1.00000000
0.00000000	1.89473684	1.00000000	1.00000000	1.00000000
0.00000000	2.00000000	1.00000000	1.00000000	1.00000000
0.10526316	0.00000000	1.00000000	1.00000000	1.00000000
0.10526316	0.10526316	1.00000000	1.00000000	1.00000000
0.10526316	0.21052632	1.00000000	1.00000000	1.00000000
0.10526316	0.31578947	1.00000000	1.00000000	1.00000000
0.10526316	0.42105263	1.00000000	1.00000000	1.00000000
0.10526316	0.52631579	1.00000000	1.00000000	1.00000000
0.10526316	0.63157895	1.00000000	1.00000000	1.00000000
0.10526316	0.73684211	1.00000000	1.00000000	1.00000000
0.10526316	0.84210526	1.00000000	1.00000000	1.00000000
0.10526316	0.94736842	1.00000000	1.00000000	1.00000000
0.10526316	1.05263158	1.00000000	1.00000000	1.00000000
0.10526316	1.15789474	1.00000000	1.00000000	1.00000000
0.10526316	1.26315789	1.00000000	1.00000000	1.00000000
0.10526316	1.36842105	1.00000000	1.00000000	1.00000000
0.10526316	1.47368421	1.00000000	1.00000000	1.00000000
0.10526316	1.57894737	1.00000000	1.00000000	1.00000000
0.10526316	1.68421053	1.00000000	1.00000000	1.00000000
0.10526316	1.78947368	1.00000000	1.00000000	1.00000000
0.10526316	1.89473684	1.00000000	1.00000000	1.00000000
0.10526316	2.00000000	1.00000000	1.00000000	1.00000000
0.21052632	0.00000000	1.00000000	1.00000000	1.00000000
0.21052632	0.10526316	1.00000000	1.00000000	1.00000000
0.21052632	0.21052632	1.00000000	1.00000000	1.00000000
0.21052632	0.31578947	1.00000000	1.00000000	1.00000000
0.21052632	0.42105263	1.00000000	1.00000000	1.00000000
0.21052632	0.52631579	1.00000000	1.00000000	1.00000000
0.21052632	0.63157895	1.00000000	1.00000000	1.00000000
0.21052632	0.73684211	1.00000000	1.00000000	1.00000000
0.21052632	0.84210526	1.00000000	1.00000000	1.00000000
0.21052632	0.94736842	1.00000000	1.00000000	1.00000000
0.21052632	1.05263158	1.00000000	1.00000000	1.00000000
0.21052632	1.15789474	1.00000000	1.00000000	1.00000000
0.21052632	1.26315789	1.00000000	1.00000000	1.00000000
0.21052632	1.36842105	1.00000000	1.00000000	1.00000000
0.21052632	1.47368421	1.00000000	1.00000000	1.00000000
0.21052632	1.57894737	1.00000000	1.00000000	1.00000000
0.21052632	1.68421053	1.00000000	1.00000000	1.00000000
0.21052632	1.78947368	1.00000000	1.00000000	1.00000000
0.21052632	1.89473684	1.00000000	1.00000000	1.00000000
0.21052632	2.00000000	1.00000000	1.00000000	1.00000000
0.31578947	0.00000000	1.00000000	1.00000000	1.00000000
0.31578947	0.10526316	1.00000000	1.00000000	1.00000000
0.31578947	0.21052632	1.00000000	1.00000000	1.00000000
0.31578947	0.31578947	1.00000000	1.00000000	1.00000000
0.31578947	0.42105263	1.00000000	1.00000000	1.00000000
0.31578947	0.52631579	1.00000000	1.00000000	1.00000000
0.31578947	0.63157895	1.00000000	1.00000000	1.00000000
0.31578947	0.73684211	1.00000000	1.00000000	1.00000000
0.31578947	0.84210526	1.00000000	1.00000000	1.00000000
0.31578947	0.94736842	1.00000000	1.00000000	1.00000000
0.31578947	1.05263158	1.00000000	1.00000000	1.00000000
0.31578947	1.15789474	1.00000000	1.00000000	1.00000000
0.31578947	1.26315789	1.00000000	1.00000000	1.00000000
0.31578947	1.36842105	1.00000000	1.00000000	1.00000000
0.31578947	1.47368421	1.00000000	1.00000000	1.00000000
0.31578947	1.57894737	1.00000000	1.00000000	1.00000000
0.31578947	1.68421053	1.00000000	1.00000000	1.00000000
0.31578947	1.78947368	1.00000000	1.00000000	1.00000000
0.31578947	1.89473684	1.00000000	1.00000000	1.00000000
0.31578947	2.00000000	1.00000000	1.00000000	1.00000000
0.42105263	0.00000000	1.00000000	1.00000000	1.00000000
0.42105263	0.10526316	1.00000000	1.00000000	1.00000000
0.42105263	0.21052632	1.00000000	1.00000000	1.00000000
0.42105263	0.31578947	1.00000000	1.00000000	1.00000000
0.42105263	0.42105263	1.00000000	1.00000000	1.00000000
0.42105263	0.52631579	1.00000000	1.00000000	1.00000000
0.42105263	0.63157895	1.00000000	1.00000000	1.00000000
0.42105263	0.73684211	1.00000000	1.00000000	1.00000000
0.42105263	0.84210526	1.00000000	1.00000000	1.00000000
0.42105263	0.94736842	1.00000000	1.00000000	1.00000000
0.42105263	1.05263158	1.00000000	1.00000000	1.00000000
0.42105263	1.15789474	1.00000000	1.00000000	1.00000000
0.42105263	1.26315789	1.00000000	1.00000000	1.00000000
0.42105263	1.36842105	1.00000000	1.00000000	1.00000000
0.42105263	1.47368421	1.00000000	1.00000000	1.00000000
0.42105263	1.57894737	1.00000000	1.00000000	1.00000000
0.42105263	1.68421053	1.00000000	1.00000000	1.00000000
0.42105263	1.78947368	1.00000000	1.00000000	1.00000000
0.42105263	1.89473684	1.00000000	1.00000000	1.00000000
0.42105263	2.00000000	1.00000000	1.00000000	1.00000000
0.52631579	0.00000000	1.00000000	1.00000000	1.00000000
0.52631579	0.10526316	1.00000000	1.00000000	1.00000000
0.52631579	0.21052632	1.00000000	1.00000000	1.00000000
0.52631579	0.31578947	1.00000000	1.00000000	1.00000000
0.52631579	0.42105263	1.00000000	1.00000000	1.00000000
0.52631579	0.52631579	1.00000000	1.00000000	1.00000000
0.52631579	0.63157895	1.00000000	1.00000000	1.00000000
0.52631579	0.73684211	1.00000000	1.00000000	1.00000000
0.52631579	0.84210526	1.00000000	1.00000000	1.00000000
0.52631579	0.94736842	1.00000001	1.00000000	1.00000000
0.52631579	1.05263158	1.00000003	1.00000000	1.00000000
0.52631579	1.15789474	1.00000005	1.00000000	1.00000000
0.52631579	1.26315789	1.00000007	1.00000000	1.00000000
0.52631579	1.36842105	1.00000008	1.00000000	1.00000000
0.52631579	1.47368421	1.00000007	1.00000000	1.00000000
0.52631579	1.57894737	1.00000006	1.00000000	1.00000000
0.52631579	1.68421053	1.00000004	1.00000000	1.00000000
0.52631579	1.78947368	1.00000003	1.00000000	1.00000000
0.52631579	1.89473684	1.00000001	1.00000000	1.00000000
0.52631579	2.00000000	1.00000000	1.00000000	1.00000000
0.63157895	0.00000000	1.00000000	1.00000000	1.00000000
0.63157895	0.10526316	1.00000000	1.00000000	1.00000000
0.63157895	0.21052632	1.00000000	1.00000000	1.00000000
0.63157895	0.31578947	1.00000000	1.00000000	1.00000000
0.63157895	0.42105263	1.00000000	1.00000000	1.00000000
0.63157895	0.52631579	1.00000000	1.00000000	1.00000000
0.63157895	0.63157895	1.00000000	1.00000000	1.00000000
0.63157895	0.73684211	1.00000001	1.00000000	1.00000000
0.63157895	0.84210526	1.00000016	1.00000000	1.00000000
0.63157895	0.94736842	1.00000075	1.00000000	1.00000000
0.63157895	1.05263158	1.00000191	1.00000000	1.00000000
0.63157895	1.15789474	1.00000344	1.00000000	1.00000000
0.63157895	1.26315789	1.00000485	1.00000000	1.00000000
0.63157895	1.36842105	1.00000560	1.00000000	1.00000000
0.63157895	1.47368421	1.00000541	1.00000000	1.00000000
0.63157895	1.57894737	1.00000444	1.00000000	1.00000000
0.63157895	1.68421053	1.00000314	1.00000000	1.00000000
0.63157895	1.78947368	1.00000194	1.00000000	1.00000000
0.63157895	1.89473684	1.00000106	1.00000000	1.00000000
0.63157895	2.00000000	1.00000000	1.00000000	1.00000000
0.73684211	0.00000000	1.00000000	1.00000000	1.00000000
0.73684211	0.10526316	1.00000000	1.00000000	1.00000000
0.73684211	0.21052632	1.00000000	1.00000000	1.00000000
0.73684211	0.31578947	1.00000000	1.00000000	1.00000000
0.73684211	0.42105263	1.00000000	1.00000000	1.00000000
0.73684211	0.52631579	1.00000000	1.00000000	1.00000000
0.73684211	0.63157895	1.00000001	1.00000000	1.00000000
0.73684211	0.73684211	1.00000031	1.00000000	1.00000000
0.73684211	0.84210526	1.00000829	1.00000000	1.00000000
0.73684211	0.94736842	1.00003779	1.00000000	1.00000000
0.73684211	1.05263158	1.00009501	1.00000000	1.00000000
0.73684211	1.15789474	1.00016981	1.00000000	1.00000000
0.73684211	1.26315789	1.00023857	1.00000000	1.00000000
0.73684211	1.36842105	1.00027535	1.00000000	1.00000000
0.73684211	1.47368421	1.00026697	1.00000000	1.00000000
0.73684211	1.57894737	1.00022065	1.00000000	1.00000000
0.73684211	1.68421053	1.00015739	1.00000000	1.00000000
0.73684211	1.78947368	1.00009800	1.00000000	1.00000000
0.73684211	1.89473684	1.00005374	1.00000000	1.00000000
0.73684211	2.00000000	1.00000000	1.00000000	1.00000000
0.84210526	0.00000000	1.00000000	1.00000000	1.00000000
0.84210526	0.10526316	1.00000000	1.00000000	1.00000000
0.84210526	0.21052632	1.00000000	1.00000000	1.00000000
0.84210526	0.31578947	1.00000000	1.00000000	1.00000000
0.84210526	0.42105263	1.00000000	1.00000000	1.00000000
0.84210526	0.52631579	1.00000000	1.00000000	1.00000000
0.84210526	0.63157895	1.00000017	1.00000000	1.00000000
0.84210526	0.73684211	1.00000834	1.00000000	1.00000000
0.84210526	0.84210526	1.00022126	1.00000000	1.00000000
0.84210526	0.94736842	1.00099216	1.00000000	1.00000000
0.84210526	1.05263158	1.00245322	1.00000000	1.00000000
0.84210526	1.15789474	1.00431794	1.00000000	1.00000000
0.84210526	1.26315789	1.00600422	1.00000000	1.00000000
0.84210526	1.36842105	1.00691216	1.00000000	1.00000000
0.84210526	1.47368421	1.00673551	1.00000000	1.00000000
0.84210526	1.57894737	1.00562573	1.00000000	1.00000000
0.84210526	1.68421053	1.00406662	1.00000000	1.00000000
0.84210526	1.78947368	1.00256764	1.00000000	1.00000000
0.84210526	1.89473684	1.00142642	1.00000000	1.00000000
0.84210526	2.00000000	1.00000000	1.00000000	1.00000000
0.94736842	0.00000000	1.00000000	1.00000000	1.00000000
0.94736842	0.10526316	1.00000000	1.00000000	1.00000000
0.94736842	0.21052632	1.00000000	1.00000000	1.00000000
0.94736842	0.31578947	1.00000000	1.00000000	1.00000000
0.94736842	0.42105263	1.00000000	1.00000000	1.00000000
0.94736842	0.52631579	1.00000001	1.00000000	1.00000000
0.94736842	0.63157895	1.00000081	1.00000000	1.00000000
0.94736842	0.73684211	1.00004070	1.00000000	1.00000000
0.94736842	0.84210526	1.00107280	1.00000000	1.00000000
0.94736842	0.94736842	1.00472991	1.00000000	1.00000000
0.94736842	1.05263158	1.01147418	1.00000000	1.00000000
0.94736842	1.15789474	1.01983365	1.00000000	1.00000000
0.94736842	1.26315789	1.02721267	1.00000000	1.00000000
0.94736842	1.36842105	1.03114136	1.00000000	1.00000000
0.94736842	1.47368421	1.03040055	1.00000000	1.00000000
0.94736842	1.57894737	1.02558884	1.00000000	1.00000000
0.94736842	1.68421053	1.01869688	1.00000000	1.00000000
0.94736842	1.78947368	1.01193617	1.00000000	1.00000000
0.94736842	1.89473684	1.00669465	1.00000000	1.00000000
0.94736842	2.00000000	1.00000000	1.00000000	1.00000000
1.05263158	0.00000000	1.00000000	1.00000000	1.00000000
1.05263158	0.10526316	1.00000000	1.00000000	1.00000000
1.05263158	0.21052632	1.00000000	1.00000000	1.00000000
1.05263158	0.31578947	1.00000000	1.00000000	1.00000000
1.05263158	0.42105263	1.00000000	1.00000000	1.00000000
1.05263158	0.52631579	1.00000003	1.00000000	1.00000000
1.05263158	0.63157895	1.00000219	1.00000000	1.00000000
1.05263158	0.73684211	1.00011053	1.00000000	1.00000000
1.05263158	0.84210526	1.00290830	1.00000000	1.00000000
1.05263158	0.94736842	1.01266271	1.00000000	1.00000000
1.05263158	1.05263158	1.03024947	1.00000000	1.00000000
1.05263158	1.15789474	1.05150904	1.00000000	1.00000000
1.05263158	1.26315789	1.06987481	1.00000000	1.00000000
1.05263158	1.36842105	1.07953191	1.00000000	1.00000000
1.05263158	1.47368421	1.07771718	1.00000000	1.00000000
1.05263158	1.57894737	1.06580713	1.00000000	1.00000000
1.05263158	1.68421053	1.04849048	1.00000000	1.00000000
1.05263158	1.78947368	1.03122080	1.00000000	1.00000000
1.05263158	1.89473684	1.01763292	1.00000000	1.00000000
1.05263158	2.00000000	1.00000000	1.00000000	1.00000000
1.15789474	0.00000000	1.00000000	1.00000000	1.00000000
1.15789474	0.10526316	1.00000000	1.00000000	1.00000000
1.15789474	0.21052632	1.00000000	1.00000000	1.00000000
1.15789474	0.31578947	1.00000000	1.00000000	1.00000000
1.15789474	0.42105263	1.00000000	1.00000000	1.00000000
1.15789474	0.52631579	1.00000006	1.00000000	1.00000000
1.15789474	0.63157895	1.00000421	1.00000000	1.00000000
1.15789474	0.73684211	1.00021393	1.00000000	1.00000000
1.15789474	0.84210526	1.00564762	1.00000000	1.00000000
1.15789474	0.94736842	1.02446539	1.00000000	1.00000000
1.15789474	1.05263158	1.05797151	1.00000000	1.00000000
1.15789474	1.15789474	1.09785606	1.00000000	1.00000000
1.15789474	1.26315789	1.13181775	1.00000000	1.00000000
1.15789474	1.36842105	1.14948506	1.00000000	1.00000000
1.15789474	1.47368421	1.14608261	1.00000000	1.00000000
1.15789474	1.57894737	1.12405304	1.00000000	1.00000000
1.15789474	1.68421053	1.09178218	1.00000000	1.00000000
1.15789474	1.78947368	1.05931159	1.00000000	1.00000000
1.15789474	1.89473684	1.03357530	1.00000000	1.00000000
1.15789474	2.00000000	1.00000000	1.00000000	1.00000000
1.26315789	0.00000000	1.00000000	1.00000000	1.00000000
1.26315789	0.10526316	1.00000000	1.00000000	1.00000000
1.26315789	0.21052632	1.00000000	1.00000000	1.00000000
1.26315789	0.31578947	1.00000000	1.00000000	1.00000000
1.26315789	0.42105263	1.00000000	1.00000000	1.00000000
1.26315789	0.52631579	1.00000008	1.00000000	1.00000000
1.26315789	0.63157895	1.00000632	1.00000000	1.00000000
1.26315789	0.73684211	1.00032400	1.00000000	1.00000000
1.26315789	0.84210526	1.00864605	1.00000000	1.00000000
1.26315789	0.94736842	1.03772923	1.00000000	1.00000000
1.26315789	1.05263158	1.08974957	1.00000000	1.00000000
1.26315789	1.15789474	1.15168807	1.00000000	1.00000000
1.26315789	1.26315789	1.20425113	1.00000000	1.00000000
1.26315789	1.36842105	1.23137931	1.00000000	1.00000000
1.26315789	1.47368421	1.22581360	1.00000000	1.00000000
1.26315789	1.57894737	1.19140205	1.00000000	1.00000000
1.26315789	1.68421053	1.14119179	1.00000000	1.00000000
1.26315789	1.78947368	1.09084726	1.00000000	1.00000000
1.26315789	1.89473684	1.05114705	1.00000000	1.00000000
1.26315789	2.00000000	1.00000000	1.00000000	1.00000000
1.36842105	0.00000000	1.00000000	1.00000000	1.00000000
1.36842105	0.10526316	1.00000000	1.00000000	1.00000000
1.36842105	0.21052632	1.00000000	1.00000000	1.00000000
1.36842105	0.31578947	1.00000000	1.00000000	1.00000000
1.36842105	0.42105263	1.00000000	1.00000000	1.00000000
1.36842105	0.52631579	1.00000010	1.00000000	1.00000000
1.36842105	0.63157895	1.00000769	1.00000000	1.00000000
1.36842105	0.73684211	1.00039870	1.00000000	1.00000000
1.36842105	0.84210526	1.01083014	1.00000000	1.00000000
1.36842105	0.94736842	1.04831582	1.00000000	1.00000000
1.36842105	1.05263158	1.11720892	1.00000000	1.00000000
1.36842105	1.15789474	1.20104262	1.00000000	1.00000000
1.36842105	1.26315789	1.27302464	1.00000000	1.00000000
1.36842105	1.36842105	1.31000385	1.00000000	1.00000000
1.36842105	1.47368421	1.30153289	1.00000000	1.00000000
1.36842105	1.57894737	1.25344298	1.00000000	1.00000000
1.36842105	1.68421053	1.18464916	1.00000000	1.00000000
1.36842105	1.78947368	1.11706365	1.00000000	1.00000000
1.36842105	1.89473684	1.06490670	1.00000000	1.00000000
1.36842105	2.00000000	1.00000000	1.00000000	1.00000000
1.47368421	0.00000000	1.00000000	1.00000000	1.00000000
1.47368421	0.10526316	1.00000000	1.00000000	1.00000000
1.47368421	0.21052632	1.00000000	1.00000000	1.00000000
1.47368421	0.31578947	1.00000000	1.00000000	1.00000000
1.47368421	0.42105263	1.00000000	1.00000000	1.00000000
1.47368421	0.52631579	1.00000010	1.00000000	1.00000000
1.47368421	0.63157895	1.00000773	1.00000000	1.00000000
1.47368421	0.73684211	1.00040601	1.00000000	1.00000000
1.47368421	0.84210526	1.01126183	1.00000000	1.00000000
1.47368421	0.94736842	1.05192153	1.00000000	1.00000000
1.47368421	1.05263158	1.13033449	1.00000000	1.00000000
1.47368421	1.15789474	1.23018863	1.00000000	1.00000000
1.47368421	1.26315789	1.31850664	1.00000000	1.00000000
1.47368421	1.36842105	1.36384561	1.00000000	1.00000000
1.47368421	1.47368421	1.35176822	1.00000000	1.00000000
1.47368421	1.57894737	1.29096212	1.00000000	1.00000000
1.47368421	1.68421053	1.20725233	1.00000000	1.00000000
1.47368421	1.78947368	1.12814574	1.00000000	1.00000000
1.47368421	1.89473684	1.06936804	1.00000000	1.00000000
1.47368421	2.00000000	1.00000000	1.00000000	1.00000000
1.57894737	0.00000000	1.00000000	1.00000000	1.00000000
1.57894737	0.10526316	1.00000000	1.00000000	1.00000000
1.57894737	0.21052632	1.00000000	1.00000000	1.00000000
1.57894737	0.31578947	1.00000000	1.00000000	1.00000000
1.57894737	0.42105263	1.00000000	1.00000000	1.00000000
1.57894737	0.52631579	1.00000008	1.00000000	1.00000000
1.57894737	0.63157895	1.00000653	1.00000000	1.00000000
1.57894737	0.73684211	1.00034692	1.00000000	1.00000000
1.57894737	0.84210526	1.00981282	1.00000000	1.00000000
1.57894737	0.94736842	1.04683157	1.00000000	1.00000000
1.57894737	1.05263158	1.12242577	1.00000000	1.00000000
1.57894737	1.15789474	1.22479791	1.00000000	1.00000000
1.57894737	1.26315789	1.31949093	1.00000000	1.00000000
1.57894737	1.36842105	1.36824904	1.00000000	1.00000000
1.57894737	1.47368421	1.35289759	1.00000000	1.00000000
1.57894737	1.57894737	1.28543622	1.00000000	1.00000000
1.57894737	1.68421053	1.19739630	1.00000000	1.00000000
1.57894737	1.78947368	1.11837822	1.00000000	1.00000000
1.57894737	1.89473684	1.06234518	1.00000000	1.00000000
1.57894737	2.00000000	1.00000000	1.00000000	1.00000000
1.68421053	0.00000000	1.00000000	1.00000000	1.00000000
1.68421053	0.10526316	1.00000000	1.00000000	1.00000000
1.68421053	0.21052632	1.00000000	1.00000000	1.00000000
1.68421053	0.31578947	1.00000000	1.00000000	1.00000000
1.68421053	0.42105263	1.00000000	1.00000000	1.00000000
1.68421053	0.52631579	1.00000006	1.00000000	1.00000000
1.68421053	0.63157895	1.00000470	1.00000000	1.00000000
1.68421053	0.73684211	1.00025221	1.00000000	1.00000000
1.68421053	0.84210526	1.00724333	1.00000000	1.00000000
1.68421053	0.94736842	1.03553167	1.00000000	1.00000000
1.68421053	1.05263158	1.09620589	1.00000000	1.00000000
1.68421053	1.15789474	1.18338244	1.00000000	1.00000000
1.68421053	1.26315789	1.26790773	1.00000000	1.00000000
1.68421053	1.36842105	1.31157699	1.00000000	1.00000000
1.68421053	1.47368421	1.29556064	1.00000000	1.00000000
1.68421053	1.57894737	1.23350982	1.00000000	1.00000000
1.68421053	1.68421053	1.15690467	1.00000000	1.00000000
1.68421053	1.78947368	1.09151423	1.00000000	1.00000000
1.68421053	1.89473684	1.04706663	1.00000000	1.00000000
1.68421053	2.00000000	1.00000000	1.00000000	1.00000000
1.78947368	0.00000000	1.00000000	1.00000000	1.00000000
1.78947368	0.10526316	1.00000000	1.00000000	1.00000000
1.78947368	0.21052632	1.00000000	1.00000000	1.00000000
1.78947368	0.31578947	1.00000000	1.00000000	1.00000000
1.78947368	0.42105263	1.00000000	1.00000000	1.00000000
1.78947368	0.52631579	1.00000004	1.00000000	1.00000000
1.78947368	0.63157895	1.00000293	1.00000000	1.00000000
1.78947368	0.73684211	1.00015822	1.00000000	1.00000000
1.78947368	0.84210526	1.00459068	1.00000000	1.00000000
1.78947368	0.94736842	1.02289239	1.00000000	1.00000000
1.78947368	1.05263158	1.06333234	1.00000000	1.00000000
1.78947368	1.15789474	1.12374041	1.00000000	1.00000000
1.78947368	1.26315789	1.18422472	1.00000000	1.00000000
1.78947368	1.36842105	1.21539406	1.00000000	1.00000000
1.78947368	1.47368421	1.20252483	1.00000000	1.00000000
1.78947368	1.57894737	1.15722565	1.00000000	1.00000000
1.78947368	1.68421053	1.10357316	1.00000000	1.00000000
1.78947368	1.78947368	1.05932232	1.00000000	1.00000000
1.78947368	1.89473684	1.03005141	1.00000000	1.00000000
1.78947368	2.00000000	1.00000000	1.00000000	1.00000000
1.89473684	0.00000000	1.00000000	1.00000000	1.00000000
1.89473684	0.10526316	1.00000000	1.00000000	1.00000000
1.89473684	0.21052632	1.00000000	1.00000000	1.00000000
1.89473684	0.31578947	1.00000000	1.00000000	1.00000000
1.89473684	0.42105263	1.00000000	1.00000000	1.00000000
1.89473684	0.52631579	1.00000002	1.00000000	1.00000000
1.89473684	0.63157895	1.00000159	1.00000000	1.00000000
1.89473684	0.73684211	1.00008666	1.00000000	1.00000000
1.89473684	0.84210526	1.00252947	1.00000000	1.00000000
1.89473684	0.94736842	1.01269331	1.00000000	1.00000000
1.89473684	1.05263158	1.03537780	1.00000000	1.00000000
1.89473684	1.15789474	1.06973363	1.00000000	1.00000000
1.89473684	1.26315789	1.10446922	1.00000000	1.00000000
1.89473684	1.36842105	1.12216650	1.00000000	1.00000000
1.89473684	1.47368421	1.11423212	1.00000000	1.00000000
1.89473684	1.57894737	1.08795270	1.00000000	1.00000000
1.89473684	1.68421053	1.05745921	1.00000000	1.00000000
1.89473684	1.78947368	1.03266821	1.00000000	1.00000000
1.89473684	1.89473684	1.01644244	1.00000000	1.00000000
1.89473684	2.00000000	1.00000000	1.00000000	1.00000000
2.00000000	0.00000000	1.00000000	1.00000000	1.00000000
2.00000000	0.10526316	1.00000000	1.00000000	1.00000000
2.00000000	0.21052632	1.00000000	1.00000000	1.00000000
2.00000000	0.31578947	1.00000000	1.00000000	1.00000000
2.00000000	0.42105263	1.00000000	1.00000000	1.00000000
2.00000000	0.52631579	1.00000000	1.00000000	1.00000000
2.00000000	0.63157895	1.00000000	1.00000000	1.00000000
2.00000000	0.73684211	1.00000000	1.00000000	1.00000000
2.00000000	0.84210526	1.00000000	1.00000000	1.00000000
2.00000000	0.94736842	1.00000000	1.00000000	1.00000000
2.00000000	1.05263158	1.00000000	1.00000000	1.00000000
2.00000000	1.15789474	1.00000000	1.00000000	1.00000000
2.00000000	1.26315789	1.00000000	1.00000000	1.00000000
2.00000000	1.36842105	1.00000000	1.00000000	1.00000000
2.00000000	1.47368421	1.00000000	1.00000000	1.00000000
2.00000000	1.57894737	1.00000000	1.00000000	1.00000000
2.00000000	1.68421053	1.00000000	1.00000000	1.00000000
2.00000000	1.78947368	1.00000000	1.00000000	1.00000000
2.00000000	1.89473684	1.00000000	1.00000000	1.00000000
2.00000000	2.00000000	1.00000000	1.00000000	1.00000000
