VARIABLES="X","Y","U","V""P"
ZONE  F=POINT
I=20, J=20
0.00000000	0.00000000	1.00000000	1.00000000	1.00000000
0.00000000	0.10526316	1.00000000	1.00000000	1.00000000
0.00000000	0.21052632	1.00000000	1.00000000	1.00000000
0.00000000	0.31578947	1.00000000	1.00000000	1.00000000
0.00000000	0.42105263	1.00000000	1.00000000	1.00000000
0.00000000	0.52631579	1.00000000	1.00000000	1.00000000
0.00000000	0.63157895	1.00000000	1.00000000	1.00000000
0.00000000	0.73684211	1.00000000	1.00000000	1.00000000
0.00000000	0.84210526	1.00000000	1.00000000	1.00000000
0.00000000	0.94736842	1.00000000	1.00000000	1.00000000
0.00000000	1.05263158	1.00000000	1.00000000	1.00000000
0.00000000	1.15789474	1.00000000	1.00000000	1.00000000
0.00000000	1.26315789	1.00000000	1.00000000	1.00000000
0.00000000	1.36842105	1.00000000	1.00000000	1.00000000
0.00000000	1.47368421	1.00000000	1.00000000	1.00000000
0.00000000	1.57894737	1.00000000	1.00000000	1.00000000
0.00000000	1.68421053	1.00000000	1.00000000	1.00000000
0.00000000	1.78947368	1.00000000	1.00000000	1.00000000
0.00000000	1.89473684	1.00000000	1.00000000	1.00000000
0.00000000	2.00000000	1.00000000	1.00000000	1.00000000
0.10526316	0.00000000	1.00000000	1.00000000	1.00000000
0.10526316	0.10526316	1.00000000	1.00000000	1.00000000
0.10526316	0.21052632	1.00000000	1.00000000	1.00000000
0.10526316	0.31578947	1.00000000	1.00000000	1.00000000
0.10526316	0.42105263	1.00000000	1.00000000	1.00000000
0.10526316	0.52631579	1.00000000	1.00000000	1.00000000
0.10526316	0.63157895	1.00000000	1.00000000	1.00000000
0.10526316	0.73684211	1.00000000	1.00000000	1.00000000
0.10526316	0.84210526	1.00000000	1.00000000	1.00000000
0.10526316	0.94736842	1.00000000	1.00000000	1.00000000
0.10526316	1.05263158	1.00000000	1.00000000	1.00000000
0.10526316	1.15789474	1.00000000	1.00000000	1.00000000
0.10526316	1.26315789	1.00000000	1.00000000	1.00000000
0.10526316	1.36842105	1.00000000	1.00000000	1.00000000
0.10526316	1.47368421	1.00000000	1.00000000	1.00000000
0.10526316	1.57894737	1.00000000	1.00000000	1.00000000
0.10526316	1.68421053	1.00000000	1.00000000	1.00000000
0.10526316	1.78947368	1.00000000	1.00000000	1.00000000
0.10526316	1.89473684	1.00000000	1.00000000	1.00000000
0.10526316	2.00000000	1.00000000	1.00000000	1.00000000
0.21052632	0.00000000	1.00000000	1.00000000	1.00000000
0.21052632	0.10526316	1.00000000	1.00000000	1.00000000
0.21052632	0.21052632	1.00000000	1.00000000	1.00000000
0.21052632	0.31578947	1.00000000	1.00000000	1.00000000
0.21052632	0.42105263	1.00000000	1.00000000	1.00000000
0.21052632	0.52631579	1.00000000	1.00000000	1.00000000
0.21052632	0.63157895	1.00000000	1.00000000	1.00000000
0.21052632	0.73684211	1.00000000	1.00000000	1.00000000
0.21052632	0.84210526	1.00000000	1.00000000	1.00000000
0.21052632	0.94736842	1.00000000	1.00000000	1.00000000
0.21052632	1.05263158	1.00000000	1.00000000	1.00000000
0.21052632	1.15789474	1.00000000	1.00000000	1.00000000
0.21052632	1.26315789	1.00000000	1.00000000	1.00000000
0.21052632	1.36842105	1.00000000	1.00000000	1.00000000
0.21052632	1.47368421	1.00000000	1.00000000	1.00000000
0.21052632	1.57894737	1.00000000	1.00000000	1.00000000
0.21052632	1.68421053	1.00000000	1.00000000	1.00000000
0.21052632	1.78947368	1.00000000	1.00000000	1.00000000
0.21052632	1.89473684	1.00000000	1.00000000	1.00000000
0.21052632	2.00000000	1.00000000	1.00000000	1.00000000
0.31578947	0.00000000	1.00000000	1.00000000	1.00000000
0.31578947	0.10526316	1.00000000	1.00000000	1.00000000
0.31578947	0.21052632	1.00000000	1.00000000	1.00000000
0.31578947	0.31578947	1.00000000	1.00000000	1.00000000
0.31578947	0.42105263	1.00000000	1.00000000	1.00000000
0.31578947	0.52631579	1.00000000	1.00000000	1.00000000
0.31578947	0.63157895	1.00000000	1.00000000	1.00000000
0.31578947	0.73684211	1.00000000	1.00000000	1.00000000
0.31578947	0.84210526	1.00000000	1.00000000	1.00000000
0.31578947	0.94736842	1.00000000	1.00000000	1.00000000
0.31578947	1.05263158	1.00000000	1.00000000	1.00000000
0.31578947	1.15789474	1.00000000	1.00000000	1.00000000
0.31578947	1.26315789	1.00000000	1.00000000	1.00000000
0.31578947	1.36842105	1.00000000	1.00000000	1.00000000
0.31578947	1.47368421	1.00000000	1.00000000	1.00000000
0.31578947	1.57894737	1.00000000	1.00000000	1.00000000
0.31578947	1.68421053	1.00000000	1.00000000	1.00000000
0.31578947	1.78947368	1.00000000	1.00000000	1.00000000
0.31578947	1.89473684	1.00000000	1.00000000	1.00000000
0.31578947	2.00000000	1.00000000	1.00000000	1.00000000
0.42105263	0.00000000	1.00000000	1.00000000	1.00000000
0.42105263	0.10526316	1.00000000	1.00000000	1.00000000
0.42105263	0.21052632	1.00000000	1.00000000	1.00000000
0.42105263	0.31578947	1.00000000	1.00000000	1.00000000
0.42105263	0.42105263	1.00000000	1.00000000	1.00000000
0.42105263	0.52631579	1.00000000	1.00000000	1.00000000
0.42105263	0.63157895	1.00000000	1.00000000	1.00000000
0.42105263	0.73684211	1.00000000	1.00000000	1.00000000
0.42105263	0.84210526	1.00000000	1.00000000	1.00000000
0.42105263	0.94736842	1.00000000	1.00000000	1.00000000
0.42105263	1.05263158	1.00000000	1.00000000	1.00000000
0.42105263	1.15789474	1.00000000	1.00000000	1.00000000
0.42105263	1.26315789	1.00000000	1.00000000	1.00000000
0.42105263	1.36842105	1.00000000	1.00000000	1.00000000
0.42105263	1.47368421	1.00000000	1.00000000	1.00000000
0.42105263	1.57894737	1.00000000	1.00000000	1.00000000
0.42105263	1.68421053	1.00000000	1.00000000	1.00000000
0.42105263	1.78947368	1.00000000	1.00000000	1.00000000
0.42105263	1.89473684	1.00000000	1.00000000	1.00000000
0.42105263	2.00000000	1.00000000	1.00000000	1.00000000
0.52631579	0.00000000	1.00000000	1.00000000	1.00000000
0.52631579	0.10526316	1.00000000	1.00000000	1.00000000
0.52631579	0.21052632	1.00000000	1.00000000	1.00000000
0.52631579	0.31578947	1.00000000	1.00000000	1.00000000
0.52631579	0.42105263	1.00000000	1.00000000	1.00000000
0.52631579	0.52631579	1.00000000	1.00000000	1.00000000
0.52631579	0.63157895	1.00000000	1.00000000	1.00000000
0.52631579	0.73684211	1.00000000	1.00000000	1.00000000
0.52631579	0.84210526	1.00000000	1.00000000	1.00000000
0.52631579	0.94736842	1.00000001	1.00000000	1.00000000
0.52631579	1.05263158	1.00000003	1.00000000	1.00000000
0.52631579	1.15789474	1.00000005	1.00000000	1.00000000
0.52631579	1.26315789	1.00000007	1.00000000	1.00000000
0.52631579	1.36842105	1.00000008	1.00000000	1.00000000
0.52631579	1.47368421	1.00000007	1.00000000	1.00000000
0.52631579	1.57894737	1.00000006	1.00000000	1.00000000
0.52631579	1.68421053	1.00000004	1.00000000	1.00000000
0.52631579	1.78947368	1.00000002	1.00000000	1.00000000
0.52631579	1.89473684	1.00000001	1.00000000	1.00000000
0.52631579	2.00000000	1.00000000	1.00000000	1.00000000
0.63157895	0.00000000	1.00000000	1.00000000	1.00000000
0.63157895	0.10526316	1.00000000	1.00000000	1.00000000
0.63157895	0.21052632	1.00000000	1.00000000	1.00000000
0.63157895	0.31578947	1.00000000	1.00000000	1.00000000
0.63157895	0.42105263	1.00000000	1.00000000	1.00000000
0.63157895	0.52631579	1.00000000	1.00000000	1.00000000
0.63157895	0.63157895	1.00000000	1.00000000	1.00000000
0.63157895	0.73684211	1.00000001	1.00000000	1.00000000
0.63157895	0.84210526	1.00000019	1.00000000	1.00000000
0.63157895	0.94736842	1.00000085	1.00000000	1.00000000
0.63157895	1.05263158	1.00000213	1.00000000	1.00000000
0.63157895	1.15789474	1.00000377	1.00000000	1.00000000
0.63157895	1.26315789	1.00000524	1.00000000	1.00000000
0.63157895	1.36842105	1.00000596	1.00000000	1.00000000
0.63157895	1.47368421	1.00000566	1.00000000	1.00000000
0.63157895	1.57894737	1.00000457	1.00000000	1.00000000
0.63157895	1.68421053	1.00000317	1.00000000	1.00000000
0.63157895	1.78947368	1.00000192	1.00000000	1.00000000
0.63157895	1.89473684	1.00000102	1.00000000	1.00000000
0.63157895	2.00000000	1.00000000	1.00000000	1.00000000
0.73684211	0.00000000	1.00000000	1.00000000	1.00000000
0.73684211	0.10526316	1.00000000	1.00000000	1.00000000
0.73684211	0.21052632	1.00000000	1.00000000	1.00000000
0.73684211	0.31578947	1.00000000	1.00000000	1.00000000
0.73684211	0.42105263	1.00000000	1.00000000	1.00000000
0.73684211	0.52631579	1.00000000	1.00000000	1.00000000
0.73684211	0.63157895	1.00000001	1.00000000	1.00000000
0.73684211	0.73684211	1.00000036	1.00000000	1.00000000
0.73684211	0.84210526	1.00000974	1.00000000	1.00000000
0.73684211	0.94736842	1.00004370	1.00000000	1.00000000
0.73684211	1.05263158	1.00010808	1.00000000	1.00000000
0.73684211	1.15789474	1.00019029	1.00000000	1.00000000
0.73684211	1.26315789	1.00026351	1.00000000	1.00000000
0.73684211	1.36842105	1.00029964	1.00000000	1.00000000
0.73684211	1.47368421	1.00028587	1.00000000	1.00000000
0.73684211	1.57894737	1.00023215	1.00000000	1.00000000
0.73684211	1.68421053	1.00016247	1.00000000	1.00000000
0.73684211	1.78947368	1.00009915	1.00000000	1.00000000
0.73684211	1.89473684	1.00005323	1.00000000	1.00000000
0.73684211	2.00000000	1.00000000	1.00000000	1.00000000
0.84210526	0.00000000	1.00000000	1.00000000	1.00000000
0.84210526	0.10526316	1.00000000	1.00000000	1.00000000
0.84210526	0.21052632	1.00000000	1.00000000	1.00000000
0.84210526	0.31578947	1.00000000	1.00000000	1.00000000
0.84210526	0.42105263	1.00000000	1.00000000	1.00000000
0.84210526	0.52631579	1.00000000	1.00000000	1.00000000
0.84210526	0.63157895	1.00000019	1.00000000	1.00000000
0.84210526	0.73684211	1.00000980	1.00000000	1.00000000
0.84210526	0.84210526	1.00026482	1.00000000	1.00000000
0.84210526	0.94736842	1.00116823	1.00000000	1.00000000
0.84210526	1.05263158	1.00283979	1.00000000	1.00000000
0.84210526	1.15789474	1.00492154	1.00000000	1.00000000
0.84210526	1.26315789	1.00674604	1.00000000	1.00000000
0.84210526	1.36842105	1.00765552	1.00000000	1.00000000
0.84210526	1.47368421	1.00734649	1.00000000	1.00000000
0.84210526	1.57894737	1.00603403	1.00000000	1.00000000
0.84210526	1.68421053	1.00428265	1.00000000	1.00000000
0.84210526	1.78947368	1.00265135	1.00000000	1.00000000
0.84210526	1.89473684	1.00144272	1.00000000	1.00000000
0.84210526	2.00000000	1.00000000	1.00000000	1.00000000
0.94736842	0.00000000	1.00000000	1.00000000	1.00000000
0.94736842	0.10526316	1.00000000	1.00000000	1.00000000
0.94736842	0.21052632	1.00000000	1.00000000	1.00000000
0.94736842	0.31578947	1.00000000	1.00000000	1.00000000
0.94736842	0.42105263	1.00000000	1.00000000	1.00000000
0.94736842	0.52631579	1.00000001	1.00000000	1.00000000
0.94736842	0.63157895	1.00000091	1.00000000	1.00000000
0.94736842	0.73684211	1.00004713	1.00000000	1.00000000
0.94736842	0.84210526	1.00126543	1.00000000	1.00000000
0.94736842	0.94736842	1.00548596	1.00000000	1.00000000
0.94736842	1.05263158	1.01307869	1.00000000	1.00000000
0.94736842	1.15789474	1.02225680	1.00000000	1.00000000
0.94736842	1.26315789	1.03010895	1.00000000	1.00000000
0.94736842	1.36842105	1.03398345	1.00000000	1.00000000
0.94736842	1.47368421	1.03269371	1.00000000	1.00000000
0.94736842	1.57894737	1.02707827	1.00000000	1.00000000
0.94736842	1.68421053	1.01943363	1.00000000	1.00000000
0.94736842	1.78947368	1.01216586	1.00000000	1.00000000
0.94736842	1.89473684	1.00668271	1.00000000	1.00000000
0.94736842	2.00000000	1.00000000	1.00000000	1.00000000
1.05263158	0.00000000	1.00000000	1.00000000	1.00000000
1.05263158	0.10526316	1.00000000	1.00000000	1.00000000
1.05263158	0.21052632	1.00000000	1.00000000	1.00000000
1.05263158	0.31578947	1.00000000	1.00000000	1.00000000
1.05263158	0.42105263	1.00000000	1.00000000	1.00000000
1.05263158	0.52631579	1.00000003	1.00000000	1.00000000
1.05263158	0.63157895	1.00000244	1.00000000	1.00000000
1.05263158	0.73684211	1.00012604	1.00000000	1.00000000
1.05263158	0.84210526	1.00337898	1.00000000	1.00000000
1.05263158	0.94736842	1.01446510	1.00000000	1.00000000
1.05263158	1.05263158	1.03396036	1.00000000	1.00000000
1.05263158	1.15789474	1.05694493	1.00000000	1.00000000
1.05263158	1.26315789	1.07619754	1.00000000	1.00000000
1.05263158	1.36842105	1.08558629	1.00000000	1.00000000
1.05263158	1.47368421	1.08246255	1.00000000	1.00000000
1.05263158	1.57894737	1.06872903	1.00000000	1.00000000
1.05263158	1.68421053	1.04974543	1.00000000	1.00000000
1.05263158	1.78947368	1.03139998	1.00000000	1.00000000
1.05263158	1.89473684	1.01736101	1.00000000	1.00000000
1.05263158	2.00000000	1.00000000	1.00000000	1.00000000
1.15789474	0.00000000	1.00000000	1.00000000	1.00000000
1.15789474	0.10526316	1.00000000	1.00000000	1.00000000
1.15789474	0.21052632	1.00000000	1.00000000	1.00000000
1.15789474	0.31578947	1.00000000	1.00000000	1.00000000
1.15789474	0.42105263	1.00000000	1.00000000	1.00000000
1.15789474	0.52631579	1.00000006	1.00000000	1.00000000
1.15789474	0.63157895	1.00000463	1.00000000	1.00000000
1.15789474	0.73684211	1.00024050	1.00000000	1.00000000
1.15789474	0.84210526	1.00647173	1.00000000	1.00000000
1.15789474	0.94736842	1.02757544	1.00000000	1.00000000
1.15789474	1.05263158	1.06424493	1.00000000	1.00000000
1.15789474	1.15789474	1.10684430	1.00000000	1.00000000
1.15789474	1.26315789	1.14203932	1.00000000	1.00000000
1.15789474	1.36842105	1.15902237	1.00000000	1.00000000
1.15789474	1.47368421	1.15326185	1.00000000	1.00000000
1.15789474	1.57894737	1.12809942	1.00000000	1.00000000
1.15789474	1.68421053	1.09306332	1.00000000	1.00000000
1.15789474	1.78947368	1.05892619	1.00000000	1.00000000
1.15789474	1.89473684	1.03263462	1.00000000	1.00000000
1.15789474	2.00000000	1.00000000	1.00000000	1.00000000
1.26315789	0.00000000	1.00000000	1.00000000	1.00000000
1.26315789	0.10526316	1.00000000	1.00000000	1.00000000
1.26315789	0.21052632	1.00000000	1.00000000	1.00000000
1.26315789	0.31578947	1.00000000	1.00000000	1.00000000
1.26315789	0.42105263	1.00000000	1.00000000	1.00000000
1.26315789	0.52631579	1.00000009	1.00000000	1.00000000
1.26315789	0.63157895	1.00000685	1.00000000	1.00000000
1.26315789	0.73684211	1.00035916	1.00000000	1.00000000
1.26315789	0.84210526	1.00977751	1.00000000	1.00000000
1.26315789	0.94736842	1.04200940	1.00000000	1.00000000
1.26315789	1.05263158	1.09834699	1.00000000	1.00000000
1.26315789	1.15789474	1.16389217	1.00000000	1.00000000
1.26315789	1.26315789	1.21790519	1.00000000	1.00000000
1.26315789	1.36842105	1.24374267	1.00000000	1.00000000
1.26315789	1.47368421	1.23455333	1.00000000	1.00000000
1.26315789	1.57894737	1.19556266	1.00000000	1.00000000
1.26315789	1.68421053	1.14153147	1.00000000	1.00000000
1.26315789	1.78947368	1.08914276	1.00000000	1.00000000
1.26315789	1.89473684	1.04905672	1.00000000	1.00000000
1.26315789	2.00000000	1.00000000	1.00000000	1.00000000
1.36842105	0.00000000	1.00000000	1.00000000	1.00000000
1.36842105	0.10526316	1.00000000	1.00000000	1.00000000
1.36842105	0.21052632	1.00000000	1.00000000	1.00000000
1.36842105	0.31578947	1.00000000	1.00000000	1.00000000
1.36842105	0.42105263	1.00000000	1.00000000	1.00000000
1.36842105	0.52631579	1.00000010	1.00000000	1.00000000
1.36842105	0.63157895	1.00000821	1.00000000	1.00000000
1.36842105	0.73684211	1.00043533	1.00000000	1.00000000
1.36842105	0.84210526	1.01207541	1.00000000	1.00000000
1.36842105	0.94736842	1.05312498	1.00000000	1.00000000
1.36842105	1.05263158	1.12701335	1.00000000	1.00000000
1.36842105	1.15789474	1.21503839	1.00000000	1.00000000
1.36842105	1.26315789	1.28849341	1.00000000	1.00000000
1.36842105	1.36842105	1.32339127	1.00000000	1.00000000
1.36842105	1.47368421	1.30990519	1.00000000	1.00000000
1.36842105	1.57894737	1.25589632	1.00000000	1.00000000
1.36842105	1.68421053	1.18264078	1.00000000	1.00000000
1.36842105	1.78947368	1.11319403	1.00000000	1.00000000
1.36842105	1.89473684	1.06128503	1.00000000	1.00000000
1.36842105	2.00000000	1.00000000	1.00000000	1.00000000
1.47368421	0.00000000	1.00000000	1.00000000	1.00000000
1.47368421	0.10526316	1.00000000	1.00000000	1.00000000
1.47368421	0.21052632	1.00000000	1.00000000	1.00000000
1.47368421	0.31578947	1.00000000	1.00000000	1.00000000
1.47368421	0.42105263	1.00000000	1.00000000	1.00000000
1.47368421	0.52631579	1.00000010	1.00000000	1.00000000
1.47368421	0.63157895	1.00000811	1.00000000	1.00000000
1.47368421	0.73684211	1.00043585	1.00000000	1.00000000
1.47368421	0.84210526	1.01235570	1.00000000	1.00000000
1.47368421	0.94736842	1.05626234	1.00000000	1.00000000
1.47368421	1.05263158	1.13940512	1.00000000	1.00000000
1.47368421	1.15789474	1.24330377	1.00000000	1.00000000
1.47368421	1.26315789	1.33268366	1.00000000	1.00000000
1.47368421	1.36842105	1.37494599	1.00000000	1.00000000
1.47368421	1.47368421	1.35660788	1.00000000	1.00000000
1.47368421	1.57894737	1.28922153	1.00000000	1.00000000
1.47368421	1.68421053	1.20145815	1.00000000	1.00000000
1.47368421	1.78947368	1.12161477	1.00000000	1.00000000
1.47368421	1.89473684	1.06423968	1.00000000	1.00000000
1.47368421	2.00000000	1.00000000	1.00000000	1.00000000
1.57894737	0.00000000	1.00000000	1.00000000	1.00000000
1.57894737	0.10526316	1.00000000	1.00000000	1.00000000
1.57894737	0.21052632	1.00000000	1.00000000	1.00000000
1.57894737	0.31578947	1.00000000	1.00000000	1.00000000
1.57894737	0.42105263	1.00000000	1.00000000	1.00000000
1.57894737	0.52631579	1.00000008	1.00000000	1.00000000
1.57894737	0.63157895	1.00000672	1.00000000	1.00000000
1.57894737	0.73684211	1.00036547	1.00000000	1.00000000
1.57894737	0.84210526	1.01056926	1.00000000	1.00000000
1.57894737	0.94736842	1.04985958	1.00000000	1.00000000
1.57894737	1.05263158	1.12877091	1.00000000	1.00000000
1.57894737	1.15789474	1.23381881	1.00000000	1.00000000
1.57894737	1.26315789	1.32833472	1.00000000	1.00000000
1.57894737	1.36842105	1.37290041	1.00000000	1.00000000
1.57894737	1.47368421	1.35085554	1.00000000	1.00000000
1.57894737	1.57894737	1.27771527	1.00000000	1.00000000
1.57894737	1.68421053	1.18756528	1.00000000	1.00000000
1.57894737	1.78947368	1.10976738	1.00000000	1.00000000
1.57894737	1.89473684	1.05641871	1.00000000	1.00000000
1.57894737	2.00000000	1.00000000	1.00000000	1.00000000
1.68421053	0.00000000	1.00000000	1.00000000	1.00000000
1.68421053	0.10526316	1.00000000	1.00000000	1.00000000
1.68421053	0.21052632	1.00000000	1.00000000	1.00000000
1.68421053	0.31578947	1.00000000	1.00000000	1.00000000
1.68421053	0.42105263	1.00000000	1.00000000	1.00000000
1.68421053	0.52631579	1.00000006	1.00000000	1.00000000
1.68421053	0.63157895	1.00000474	1.00000000	1.00000000
1.68421053	0.73684211	1.00026032	1.00000000	1.00000000
1.68421053	0.84210526	1.00764403	1.00000000	1.00000000
1.68421053	0.94736842	1.03705693	1.00000000	1.00000000
1.68421053	1.05263158	1.09909411	1.00000000	1.00000000
1.68421053	1.15789474	1.18669535	1.00000000	1.00000000
1.68421053	1.26315789	1.26918708	1.00000000	1.00000000
1.68421053	1.36842105	1.30794477	1.00000000	1.00000000
1.68421053	1.47368421	1.28629660	1.00000000	1.00000000
1.68421053	1.57894737	1.22112345	1.00000000	1.00000000
1.68421053	1.68421053	1.14510269	1.00000000	1.00000000
1.68421053	1.78947368	1.08264625	1.00000000	1.00000000
1.68421053	1.89473684	1.04152359	1.00000000	1.00000000
1.68421053	2.00000000	1.00000000	1.00000000	1.00000000
1.78947368	0.00000000	1.00000000	1.00000000	1.00000000
1.78947368	0.10526316	1.00000000	1.00000000	1.00000000
1.78947368	0.21052632	1.00000000	1.00000000	1.00000000
1.78947368	0.31578947	1.00000000	1.00000000	1.00000000
1.78947368	0.42105263	1.00000000	1.00000000	1.00000000
1.78947368	0.52631579	1.00000004	1.00000000	1.00000000
1.78947368	0.63157895	1.00000289	1.00000000	1.00000000
1.78947368	0.73684211	1.00015983	1.00000000	1.00000000
1.78947368	0.84210526	1.00474010	1.00000000	1.00000000
1.78947368	0.94736842	1.02333889	1.00000000	1.00000000
1.78947368	1.05263158	1.06368609	1.00000000	1.00000000
1.78947368	1.15789474	1.12279319	1.00000000	1.00000000
1.78947368	1.26315789	1.18009526	1.00000000	1.00000000
1.78947368	1.36842105	1.20677117	1.00000000	1.00000000
1.78947368	1.47368421	1.19037910	1.00000000	1.00000000
1.78947368	1.57894737	1.14452515	1.00000000	1.00000000
1.78947368	1.68421053	1.09308063	1.00000000	1.00000000
1.78947368	1.78947368	1.05213481	1.00000000	1.00000000
1.78947368	1.89473684	1.02583276	1.00000000	1.00000000
1.78947368	2.00000000	1.00000000	1.00000000	1.00000000
1.89473684	0.00000000	1.00000000	1.00000000	1.00000000
1.89473684	0.10526316	1.00000000	1.00000000	1.00000000
1.89473684	0.21052632	1.00000000	1.00000000	1.00000000
1.89473684	0.31578947	1.00000000	1.00000000	1.00000000
1.89473684	0.42105263	1.00000000	1.00000000	1.00000000
1.89473684	0.52631579	1.00000002	1.00000000	1.00000000
1.89473684	0.63157895	1.00000154	1.00000000	1.00000000
1.89473684	0.73684211	1.00008562	1.00000000	1.00000000
1.89473684	0.84210526	1.00255349	1.00000000	1.00000000
1.89473684	0.94736842	1.01263815	1.00000000	1.00000000
1.89473684	1.05263158	1.03469065	1.00000000	1.00000000
1.89473684	1.15789474	1.06735901	1.00000000	1.00000000
1.89473684	1.26315789	1.09924053	1.00000000	1.00000000
1.89473684	1.36842105	1.11384212	1.00000000	1.00000000
1.89473684	1.47368421	1.10424242	1.00000000	1.00000000
1.89473684	1.57894737	1.07855924	1.00000000	1.00000000
1.89473684	1.68421053	1.05024188	1.00000000	1.00000000
1.89473684	1.78947368	1.02796756	1.00000000	1.00000000
1.89473684	1.89473684	1.01378156	1.00000000	1.00000000
1.89473684	2.00000000	1.00000000	1.00000000	1.00000000
2.00000000	0.00000000	1.00000000	1.00000000	1.00000000
2.00000000	0.10526316	1.00000000	1.00000000	1.00000000
2.00000000	0.21052632	1.00000000	1.00000000	1.00000000
2.00000000	0.31578947	1.00000000	1.00000000	1.00000000
2.00000000	0.42105263	1.00000000	1.00000000	1.00000000
2.00000000	0.52631579	1.00000000	1.00000000	1.00000000
2.00000000	0.63157895	1.00000000	1.00000000	1.00000000
2.00000000	0.73684211	1.00000000	1.00000000	1.00000000
2.00000000	0.84210526	1.00000000	1.00000000	1.00000000
2.00000000	0.94736842	1.00000000	1.00000000	1.00000000
2.00000000	1.05263158	1.00000000	1.00000000	1.00000000
2.00000000	1.15789474	1.00000000	1.00000000	1.00000000
2.00000000	1.26315789	1.00000000	1.00000000	1.00000000
2.00000000	1.36842105	1.00000000	1.00000000	1.00000000
2.00000000	1.47368421	1.00000000	1.00000000	1.00000000
2.00000000	1.57894737	1.00000000	1.00000000	1.00000000
2.00000000	1.68421053	1.00000000	1.00000000	1.00000000
2.00000000	1.78947368	1.00000000	1.00000000	1.00000000
2.00000000	1.89473684	1.00000000	1.00000000	1.00000000
2.00000000	2.00000000	1.00000000	1.00000000	1.00000000
