VARIABLES="X","Y","U","V""P"
ZONE  F=POINT
I=20, J=20
0.00000000	0.00000000	1.00000000	1.00000000	1.00000000
0.00000000	0.10526316	1.00000000	1.00000000	1.00000000
0.00000000	0.21052632	1.00000000	1.00000000	1.00000000
0.00000000	0.31578947	1.00000000	1.00000000	1.00000000
0.00000000	0.42105263	1.00000000	1.00000000	1.00000000
0.00000000	0.52631579	1.00000000	1.00000000	1.00000000
0.00000000	0.63157895	1.00000000	1.00000000	1.00000000
0.00000000	0.73684211	1.00000000	1.00000000	1.00000000
0.00000000	0.84210526	1.00000000	1.00000000	1.00000000
0.00000000	0.94736842	1.00000000	1.00000000	1.00000000
0.00000000	1.05263158	1.00000000	1.00000000	1.00000000
0.00000000	1.15789474	1.00000000	1.00000000	1.00000000
0.00000000	1.26315789	1.00000000	1.00000000	1.00000000
0.00000000	1.36842105	1.00000000	1.00000000	1.00000000
0.00000000	1.47368421	1.00000000	1.00000000	1.00000000
0.00000000	1.57894737	1.00000000	1.00000000	1.00000000
0.00000000	1.68421053	1.00000000	1.00000000	1.00000000
0.00000000	1.78947368	1.00000000	1.00000000	1.00000000
0.00000000	1.89473684	1.00000000	1.00000000	1.00000000
0.00000000	2.00000000	1.00000000	1.00000000	1.00000000
0.10526316	0.00000000	1.00000000	1.00000000	1.00000000
0.10526316	0.10526316	1.00000000	1.00000000	1.00000000
0.10526316	0.21052632	1.00000000	1.00000000	1.00000000
0.10526316	0.31578947	1.00000000	1.00000000	1.00000000
0.10526316	0.42105263	1.00000000	1.00000000	1.00000000
0.10526316	0.52631579	1.00000000	1.00000000	1.00000000
0.10526316	0.63157895	1.00000000	1.00000000	1.00000000
0.10526316	0.73684211	1.00000000	1.00000000	1.00000000
0.10526316	0.84210526	1.00000000	1.00000000	1.00000000
0.10526316	0.94736842	1.00000000	1.00000000	1.00000000
0.10526316	1.05263158	1.00000000	1.00000000	1.00000000
0.10526316	1.15789474	1.00000000	1.00000000	1.00000000
0.10526316	1.26315789	1.00000000	1.00000000	1.00000000
0.10526316	1.36842105	1.00000000	1.00000000	1.00000000
0.10526316	1.47368421	1.00000000	1.00000000	1.00000000
0.10526316	1.57894737	1.00000000	1.00000000	1.00000000
0.10526316	1.68421053	1.00000000	1.00000000	1.00000000
0.10526316	1.78947368	1.00000000	1.00000000	1.00000000
0.10526316	1.89473684	1.00000000	1.00000000	1.00000000
0.10526316	2.00000000	1.00000000	1.00000000	1.00000000
0.21052632	0.00000000	1.00000000	1.00000000	1.00000000
0.21052632	0.10526316	1.00000000	1.00000000	1.00000000
0.21052632	0.21052632	1.00000000	1.00000000	1.00000000
0.21052632	0.31578947	1.00000000	1.00000000	1.00000000
0.21052632	0.42105263	1.00000000	1.00000000	1.00000000
0.21052632	0.52631579	1.00000000	1.00000000	1.00000000
0.21052632	0.63157895	1.00000000	1.00000000	1.00000000
0.21052632	0.73684211	1.00000000	1.00000000	1.00000000
0.21052632	0.84210526	1.00000000	1.00000000	1.00000000
0.21052632	0.94736842	1.00000000	1.00000000	1.00000000
0.21052632	1.05263158	1.00000000	1.00000000	1.00000000
0.21052632	1.15789474	1.00000000	1.00000000	1.00000000
0.21052632	1.26315789	1.00000000	1.00000000	1.00000000
0.21052632	1.36842105	1.00000000	1.00000000	1.00000000
0.21052632	1.47368421	1.00000000	1.00000000	1.00000000
0.21052632	1.57894737	1.00000000	1.00000000	1.00000000
0.21052632	1.68421053	1.00000000	1.00000000	1.00000000
0.21052632	1.78947368	1.00000000	1.00000000	1.00000000
0.21052632	1.89473684	1.00000000	1.00000000	1.00000000
0.21052632	2.00000000	1.00000000	1.00000000	1.00000000
0.31578947	0.00000000	1.00000000	1.00000000	1.00000000
0.31578947	0.10526316	1.00000000	1.00000000	1.00000000
0.31578947	0.21052632	1.00000000	1.00000000	1.00000000
0.31578947	0.31578947	1.00000000	1.00000000	1.00000000
0.31578947	0.42105263	1.00000000	1.00000000	1.00000000
0.31578947	0.52631579	1.00000000	1.00000000	1.00000000
0.31578947	0.63157895	1.00000000	1.00000000	1.00000000
0.31578947	0.73684211	1.00000000	1.00000000	1.00000000
0.31578947	0.84210526	1.00000000	1.00000000	1.00000000
0.31578947	0.94736842	1.00000000	1.00000000	1.00000000
0.31578947	1.05263158	1.00000000	1.00000000	1.00000000
0.31578947	1.15789474	1.00000000	1.00000000	1.00000000
0.31578947	1.26315789	1.00000000	1.00000000	1.00000000
0.31578947	1.36842105	1.00000000	1.00000000	1.00000000
0.31578947	1.47368421	1.00000000	1.00000000	1.00000000
0.31578947	1.57894737	1.00000000	1.00000000	1.00000000
0.31578947	1.68421053	1.00000000	1.00000000	1.00000000
0.31578947	1.78947368	1.00000000	1.00000000	1.00000000
0.31578947	1.89473684	1.00000000	1.00000000	1.00000000
0.31578947	2.00000000	1.00000000	1.00000000	1.00000000
0.42105263	0.00000000	1.00000000	1.00000000	1.00000000
0.42105263	0.10526316	1.00000000	1.00000000	1.00000000
0.42105263	0.21052632	1.00000000	1.00000000	1.00000000
0.42105263	0.31578947	1.00000000	1.00000000	1.00000000
0.42105263	0.42105263	1.00000000	1.00000000	1.00000000
0.42105263	0.52631579	1.00000000	1.00000000	1.00000000
0.42105263	0.63157895	1.00000000	1.00000000	1.00000000
0.42105263	0.73684211	1.00000000	1.00000000	1.00000000
0.42105263	0.84210526	1.00000000	1.00000000	1.00000000
0.42105263	0.94736842	1.00000000	1.00000000	1.00000000
0.42105263	1.05263158	1.00000000	1.00000000	1.00000000
0.42105263	1.15789474	1.00000000	1.00000000	1.00000000
0.42105263	1.26315789	1.00000000	1.00000000	1.00000000
0.42105263	1.36842105	1.00000000	1.00000000	1.00000000
0.42105263	1.47368421	1.00000000	1.00000000	1.00000000
0.42105263	1.57894737	1.00000000	1.00000000	1.00000000
0.42105263	1.68421053	1.00000000	1.00000000	1.00000000
0.42105263	1.78947368	1.00000000	1.00000000	1.00000000
0.42105263	1.89473684	1.00000000	1.00000000	1.00000000
0.42105263	2.00000000	1.00000000	1.00000000	1.00000000
0.52631579	0.00000000	1.00000000	1.00000000	1.00000000
0.52631579	0.10526316	1.00000000	1.00000000	1.00000000
0.52631579	0.21052632	1.00000000	1.00000000	1.00000000
0.52631579	0.31578947	1.00000000	1.00000000	1.00000000
0.52631579	0.42105263	1.00000000	1.00000000	1.00000000
0.52631579	0.52631579	1.00000000	1.00000000	1.00000000
0.52631579	0.63157895	1.00000000	1.00000000	1.00000000
0.52631579	0.73684211	1.00000000	1.00000000	1.00000000
0.52631579	0.84210526	1.00000001	1.00000000	1.00000000
0.52631579	0.94736842	1.00000003	1.00000000	1.00000000
0.52631579	1.05263158	1.00000006	1.00000000	1.00000000
0.52631579	1.15789474	1.00000009	1.00000000	1.00000000
0.52631579	1.26315789	1.00000010	1.00000000	1.00000000
0.52631579	1.36842105	1.00000010	1.00000000	1.00000000
0.52631579	1.47368421	1.00000007	1.00000000	1.00000000
0.52631579	1.57894737	1.00000005	1.00000000	1.00000000
0.52631579	1.68421053	1.00000002	1.00000000	1.00000000
0.52631579	1.78947368	1.00000001	1.00000000	1.00000000
0.52631579	1.89473684	1.00000000	1.00000000	1.00000000
0.52631579	2.00000000	1.00000000	1.00000000	1.00000000
0.63157895	0.00000000	1.00000000	1.00000000	1.00000000
0.63157895	0.10526316	1.00000000	1.00000000	1.00000000
0.63157895	0.21052632	1.00000000	1.00000000	1.00000000
0.63157895	0.31578947	1.00000000	1.00000000	1.00000000
0.63157895	0.42105263	1.00000000	1.00000000	1.00000000
0.63157895	0.52631579	1.00000000	1.00000000	1.00000000
0.63157895	0.63157895	1.00000000	1.00000000	1.00000000
0.63157895	0.73684211	1.00000002	1.00000000	1.00000000
0.63157895	0.84210526	1.00000081	1.00000000	1.00000000
0.63157895	0.94736842	1.00000301	1.00000000	1.00000000
0.63157895	1.05263158	1.00000614	1.00000000	1.00000000
0.63157895	1.15789474	1.00000912	1.00000000	1.00000000
0.63157895	1.26315789	1.00001065	1.00000000	1.00000000
0.63157895	1.36842105	1.00000999	1.00000000	1.00000000
0.63157895	1.47368421	1.00000764	1.00000000	1.00000000
0.63157895	1.57894737	1.00000485	1.00000000	1.00000000
0.63157895	1.68421053	1.00000260	1.00000000	1.00000000
0.63157895	1.78947368	1.00000120	1.00000000	1.00000000
0.63157895	1.89473684	1.00000048	1.00000000	1.00000000
0.63157895	2.00000000	1.00000000	1.00000000	1.00000000
0.73684211	0.00000000	1.00000000	1.00000000	1.00000000
0.73684211	0.10526316	1.00000000	1.00000000	1.00000000
0.73684211	0.21052632	1.00000000	1.00000000	1.00000000
0.73684211	0.31578947	1.00000000	1.00000000	1.00000000
0.73684211	0.42105263	1.00000000	1.00000000	1.00000000
0.73684211	0.52631579	1.00000000	1.00000000	1.00000000
0.73684211	0.63157895	1.00000002	1.00000000	1.00000000
0.73684211	0.73684211	1.00000157	1.00000000	1.00000000
0.73684211	0.84210526	1.00005588	1.00000000	1.00000000
0.73684211	0.94736842	1.00020433	1.00000000	1.00000000
0.73684211	1.05263158	1.00041292	1.00000000	1.00000000
0.73684211	1.15789474	1.00060914	1.00000000	1.00000000
0.73684211	1.26315789	1.00071041	1.00000000	1.00000000
0.73684211	1.36842105	1.00066969	1.00000000	1.00000000
0.73684211	1.47368421	1.00051706	1.00000000	1.00000000
0.73684211	1.57894737	1.00033192	1.00000000	1.00000000
0.73684211	1.68421053	1.00018009	1.00000000	1.00000000
0.73684211	1.78947368	1.00008392	1.00000000	1.00000000
0.73684211	1.89473684	1.00003405	1.00000000	1.00000000
0.73684211	2.00000000	1.00000000	1.00000000	1.00000000
0.84210526	0.00000000	1.00000000	1.00000000	1.00000000
0.84210526	0.10526316	1.00000000	1.00000000	1.00000000
0.84210526	0.21052632	1.00000000	1.00000000	1.00000000
0.84210526	0.31578947	1.00000000	1.00000000	1.00000000
0.84210526	0.42105263	1.00000000	1.00000000	1.00000000
0.84210526	0.52631579	1.00000001	1.00000000	1.00000000
0.84210526	0.63157895	1.00000082	1.00000000	1.00000000
0.84210526	0.73684211	1.00005612	1.00000000	1.00000000
0.84210526	0.84210526	1.00194950	1.00000000	1.00000000
0.84210526	0.94736842	1.00694321	1.00000000	1.00000000
0.84210526	1.05263158	1.01369071	1.00000000	1.00000000
0.84210526	1.15789474	1.01981029	1.00000000	1.00000000
0.84210526	1.26315789	1.02296587	1.00000000	1.00000000
0.84210526	1.36842105	1.02184357	1.00000000	1.00000000
0.84210526	1.47368421	1.01718714	1.00000000	1.00000000
0.84210526	1.57894737	1.01128524	1.00000000	1.00000000
0.84210526	1.68421053	1.00625799	1.00000000	1.00000000
0.84210526	1.78947368	1.00297213	1.00000000	1.00000000
0.84210526	1.89473684	1.00122508	1.00000000	1.00000000
0.84210526	2.00000000	1.00000000	1.00000000	1.00000000
0.94736842	0.00000000	1.00000000	1.00000000	1.00000000
0.94736842	0.10526316	1.00000000	1.00000000	1.00000000
0.94736842	0.21052632	1.00000000	1.00000000	1.00000000
0.94736842	0.31578947	1.00000000	1.00000000	1.00000000
0.94736842	0.42105263	1.00000000	1.00000000	1.00000000
0.94736842	0.52631579	1.00000003	1.00000000	1.00000000
0.94736842	0.63157895	1.00000326	1.00000000	1.00000000
0.94736842	0.73684211	1.00022367	1.00000000	1.00000000
0.94736842	0.84210526	1.00771048	1.00000000	1.00000000
0.94736842	0.94736842	1.02687192	1.00000000	1.00000000
0.94736842	1.05263158	1.05188275	1.00000000	1.00000000
0.94736842	1.15789474	1.07385240	1.00000000	1.00000000
0.94736842	1.26315789	1.08497959	1.00000000	1.00000000
0.94736842	1.36842105	1.08105159	1.00000000	1.00000000
0.94736842	1.47368421	1.06442568	1.00000000	1.00000000
0.94736842	1.57894737	1.04284586	1.00000000	1.00000000
0.94736842	1.68421053	1.02403140	1.00000000	1.00000000
0.94736842	1.78947368	1.01150640	1.00000000	1.00000000
0.94736842	1.89473684	1.00476504	1.00000000	1.00000000
0.94736842	2.00000000	1.00000000	1.00000000	1.00000000
1.05263158	0.00000000	1.00000000	1.00000000	1.00000000
1.05263158	0.10526316	1.00000000	1.00000000	1.00000000
1.05263158	0.21052632	1.00000000	1.00000000	1.00000000
1.05263158	0.31578947	1.00000000	1.00000000	1.00000000
1.05263158	0.42105263	1.00000000	1.00000000	1.00000000
1.05263158	0.52631579	1.00000007	1.00000000	1.00000000
1.05263158	0.63157895	1.00000718	1.00000000	1.00000000
1.05263158	0.73684211	1.00049568	1.00000000	1.00000000
1.05263158	0.84210526	1.01712399	1.00000000	1.00000000
1.05263158	0.94736842	1.05908730	1.00000000	1.00000000
1.05263158	1.05263158	1.11283478	1.00000000	1.00000000
1.05263158	1.15789474	1.15918825	1.00000000	1.00000000
1.05263158	1.26315789	1.18234677	1.00000000	1.00000000
1.05263158	1.36842105	1.17402899	1.00000000	1.00000000
1.05263158	1.47368421	1.13891865	1.00000000	1.00000000
1.05263158	1.57894737	1.09285693	1.00000000	1.00000000
1.05263158	1.68421053	1.05227174	1.00000000	1.00000000
1.05263158	1.78947368	1.02506030	1.00000000	1.00000000
1.05263158	1.89473684	1.01036868	1.00000000	1.00000000
1.05263158	2.00000000	1.00000000	1.00000000	1.00000000
1.15789474	0.00000000	1.00000000	1.00000000	1.00000000
1.15789474	0.10526316	1.00000000	1.00000000	1.00000000
1.15789474	0.21052632	1.00000000	1.00000000	1.00000000
1.15789474	0.31578947	1.00000000	1.00000000	1.00000000
1.15789474	0.42105263	1.00000000	1.00000000	1.00000000
1.15789474	0.52631579	1.00000011	1.00000000	1.00000000
1.15789474	0.63157895	1.00001147	1.00000000	1.00000000
1.15789474	0.73684211	1.00079893	1.00000000	1.00000000
1.15789474	0.84210526	1.02791448	1.00000000	1.00000000
1.15789474	0.94736842	1.09666655	1.00000000	1.00000000
1.15789474	1.05263158	1.18469857	1.00000000	1.00000000
1.15789474	1.15789474	1.26040251	1.00000000	1.00000000
1.15789474	1.26315789	1.29792912	1.00000000	1.00000000
1.15789474	1.36842105	1.28394128	1.00000000	1.00000000
1.15789474	1.47368421	1.22619635	1.00000000	1.00000000
1.15789474	1.57894737	1.15069115	1.00000000	1.00000000
1.15789474	1.68421053	1.08441935	1.00000000	1.00000000
1.15789474	1.78947368	1.04023393	1.00000000	1.00000000
1.15789474	1.89473684	1.01654079	1.00000000	1.00000000
1.15789474	2.00000000	1.00000000	1.00000000	1.00000000
1.26315789	0.00000000	1.00000000	1.00000000	1.00000000
1.26315789	0.10526316	1.00000000	1.00000000	1.00000000
1.26315789	0.21052632	1.00000000	1.00000000	1.00000000
1.26315789	0.31578947	1.00000000	1.00000000	1.00000000
1.26315789	0.42105263	1.00000000	1.00000000	1.00000000
1.26315789	0.52631579	1.00000013	1.00000000	1.00000000
1.26315789	0.63157895	1.00001421	1.00000000	1.00000000
1.26315789	0.73684211	1.00100482	1.00000000	1.00000000
1.26315789	0.84210526	1.03600048	1.00000000	1.00000000
1.26315789	0.94736842	1.12780010	1.00000000	1.00000000
1.26315789	1.05263158	1.24865433	1.00000000	1.00000000
1.26315789	1.15789474	1.35460810	1.00000000	1.00000000
1.26315789	1.26315789	1.40707225	1.00000000	1.00000000
1.26315789	1.36842105	1.38614508	1.00000000	1.00000000
1.26315789	1.47368421	1.30405703	1.00000000	1.00000000
1.26315789	1.57894737	1.19926677	1.00000000	1.00000000
1.26315789	1.68421053	1.10961753	1.00000000	1.00000000
1.26315789	1.78947368	1.05133856	1.00000000	1.00000000
1.26315789	1.89473684	1.02078482	1.00000000	1.00000000
1.26315789	2.00000000	1.00000000	1.00000000	1.00000000
1.36842105	0.00000000	1.00000000	1.00000000	1.00000000
1.36842105	0.10526316	1.00000000	1.00000000	1.00000000
1.36842105	0.21052632	1.00000000	1.00000000	1.00000000
1.36842105	0.31578947	1.00000000	1.00000000	1.00000000
1.36842105	0.42105263	1.00000000	1.00000000	1.00000000
1.36842105	0.52631579	1.00000013	1.00000000	1.00000000
1.36842105	0.63157895	1.00001391	1.00000000	1.00000000
1.36842105	0.73684211	1.00100118	1.00000000	1.00000000
1.36842105	0.84210526	1.03709026	1.00000000	1.00000000
1.36842105	0.94736842	1.13777197	1.00000000	1.00000000
1.36842105	1.05263158	1.27863525	1.00000000	1.00000000
1.36842105	1.15789474	1.40827468	1.00000000	1.00000000
1.36842105	1.26315789	1.47293150	1.00000000	1.00000000
1.36842105	1.36842105	1.44434473	1.00000000	1.00000000
1.36842105	1.47368421	1.34157078	1.00000000	1.00000000
1.36842105	1.57894737	1.21688966	1.00000000	1.00000000
1.36842105	1.68421053	1.11553911	1.00000000	1.00000000
1.36842105	1.78947368	1.05260660	1.00000000	1.00000000
1.36842105	1.89473684	1.02081758	1.00000000	1.00000000
1.36842105	2.00000000	1.00000000	1.00000000	1.00000000
1.47368421	0.00000000	1.00000000	1.00000000	1.00000000
1.47368421	0.10526316	1.00000000	1.00000000	1.00000000
1.47368421	0.21052632	1.00000000	1.00000000	1.00000000
1.47368421	0.31578947	1.00000000	1.00000000	1.00000000
1.47368421	0.42105263	1.00000000	1.00000000	1.00000000
1.47368421	0.52631579	1.00000010	1.00000000	1.00000000
1.47368421	0.63157895	1.00001092	1.00000000	1.00000000
1.47368421	0.73684211	1.00079920	1.00000000	1.00000000
1.47368421	0.84210526	1.03053100	1.00000000	1.00000000
1.47368421	0.94736842	1.11918722	1.00000000	1.00000000
1.47368421	1.05263158	1.25328571	1.00000000	1.00000000
1.47368421	1.15789474	1.38582093	1.00000000	1.00000000
1.47368421	1.26315789	1.45288892	1.00000000	1.00000000
1.47368421	1.36842105	1.41945090	1.00000000	1.00000000
1.47368421	1.47368421	1.31187994	1.00000000	1.00000000
1.47368421	1.57894737	1.19028321	1.00000000	1.00000000
1.47368421	1.68421053	1.09766413	1.00000000	1.00000000
1.47368421	1.78947368	1.04313716	1.00000000	1.00000000
1.47368421	1.89473684	1.01667667	1.00000000	1.00000000
1.47368421	2.00000000	1.00000000	1.00000000	1.00000000
1.57894737	0.00000000	1.00000000	1.00000000	1.00000000
1.57894737	0.10526316	1.00000000	1.00000000	1.00000000
1.57894737	0.21052632	1.00000000	1.00000000	1.00000000
1.57894737	0.31578947	1.00000000	1.00000000	1.00000000
1.57894737	0.42105263	1.00000000	1.00000000	1.00000000
1.57894737	0.52631579	1.00000006	1.00000000	1.00000000
1.57894737	0.63157895	1.00000702	1.00000000	1.00000000
1.57894737	0.73684211	1.00052027	1.00000000	1.00000000
1.57894737	0.84210526	1.02029544	1.00000000	1.00000000
1.57894737	0.94736842	1.08208346	1.00000000	1.00000000
1.57894737	1.05263158	1.18157932	1.00000000	1.00000000
1.57894737	1.15789474	1.28659461	1.00000000	1.00000000
1.57894737	1.26315789	1.34041565	1.00000000	1.00000000
1.57894737	1.36842105	1.31056016	1.00000000	1.00000000
1.57894737	1.47368421	1.22391208	1.00000000	1.00000000
1.57894737	1.57894737	1.13211658	1.00000000	1.00000000
1.57894737	1.68421053	1.06587982	1.00000000	1.00000000
1.57894737	1.78947368	1.02844806	1.00000000	1.00000000
1.57894737	1.89473684	1.01081016	1.00000000	1.00000000
1.57894737	2.00000000	1.00000000	1.00000000	1.00000000
1.68421053	0.00000000	1.00000000	1.00000000	1.00000000
1.68421053	0.10526316	1.00000000	1.00000000	1.00000000
1.68421053	0.21052632	1.00000000	1.00000000	1.00000000
1.68421053	0.31578947	1.00000000	1.00000000	1.00000000
1.68421053	0.42105263	1.00000000	1.00000000	1.00000000
1.68421053	0.52631579	1.00000003	1.00000000	1.00000000
1.68421053	0.63157895	1.00000378	1.00000000	1.00000000
1.68421053	0.73684211	1.00028218	1.00000000	1.00000000
1.68421053	0.84210526	1.01112685	1.00000000	1.00000000
1.68421053	0.94736842	1.04566358	1.00000000	1.00000000
1.68421053	1.05263158	1.10283398	1.00000000	1.00000000
1.68421053	1.15789474	1.16520730	1.00000000	1.00000000
1.68421053	1.26315789	1.19713854	1.00000000	1.00000000
1.68421053	1.36842105	1.17801619	1.00000000	1.00000000
1.68421053	1.47368421	1.12617676	1.00000000	1.00000000
1.68421053	1.57894737	1.07321253	1.00000000	1.00000000
1.68421053	1.68421053	1.03600238	1.00000000	1.00000000
1.68421053	1.78947368	1.01537211	1.00000000	1.00000000
1.68421053	1.89473684	1.00578696	1.00000000	1.00000000
1.68421053	2.00000000	1.00000000	1.00000000	1.00000000
1.78947368	0.00000000	1.00000000	1.00000000	1.00000000
1.78947368	0.10526316	1.00000000	1.00000000	1.00000000
1.78947368	0.21052632	1.00000000	1.00000000	1.00000000
1.78947368	0.31578947	1.00000000	1.00000000	1.00000000
1.78947368	0.42105263	1.00000000	1.00000000	1.00000000
1.78947368	0.52631579	1.00000002	1.00000000	1.00000000
1.78947368	0.63157895	1.00000173	1.00000000	1.00000000
1.78947368	0.73684211	1.00013023	1.00000000	1.00000000
1.78947368	0.84210526	1.00515500	1.00000000	1.00000000
1.78947368	0.94736842	1.02113332	1.00000000	1.00000000
1.78947368	1.05263158	1.04753491	1.00000000	1.00000000
1.78947368	1.15789474	1.07635447	1.00000000	1.00000000
1.78947368	1.26315789	1.09088654	1.00000000	1.00000000
1.78947368	1.36842105	1.08173880	1.00000000	1.00000000
1.78947368	1.47368421	1.05774206	1.00000000	1.00000000
1.78947368	1.57894737	1.03342634	1.00000000	1.00000000
1.78947368	1.68421053	1.01640061	1.00000000	1.00000000
1.78947368	1.78947368	1.00698254	1.00000000	1.00000000
1.78947368	1.89473684	1.00261918	1.00000000	1.00000000
1.78947368	2.00000000	1.00000000	1.00000000	1.00000000
1.89473684	0.00000000	1.00000000	1.00000000	1.00000000
1.89473684	0.10526316	1.00000000	1.00000000	1.00000000
1.89473684	0.21052632	1.00000000	1.00000000	1.00000000
1.89473684	0.31578947	1.00000000	1.00000000	1.00000000
1.89473684	0.42105263	1.00000000	1.00000000	1.00000000
1.89473684	0.52631579	1.00000001	1.00000000	1.00000000
1.89473684	0.63157895	1.00000069	1.00000000	1.00000000
1.89473684	0.73684211	1.00005206	1.00000000	1.00000000
1.89473684	0.84210526	1.00206120	1.00000000	1.00000000
1.89473684	0.94736842	1.00837549	1.00000000	1.00000000
1.89473684	1.05263158	1.01864141	1.00000000	1.00000000
1.89473684	1.15789474	1.02966788	1.00000000	1.00000000
1.89473684	1.26315789	1.03511557	1.00000000	1.00000000
1.89473684	1.36842105	1.03156898	1.00000000	1.00000000
1.89473684	1.47368421	1.02237865	1.00000000	1.00000000
1.89473684	1.57894737	1.01301155	1.00000000	1.00000000
1.89473684	1.68421053	1.00640392	1.00000000	1.00000000
1.89473684	1.78947368	1.00272946	1.00000000	1.00000000
1.89473684	1.89473684	1.00102312	1.00000000	1.00000000
1.89473684	2.00000000	1.00000000	1.00000000	1.00000000
2.00000000	0.00000000	1.00000000	1.00000000	1.00000000
2.00000000	0.10526316	1.00000000	1.00000000	1.00000000
2.00000000	0.21052632	1.00000000	1.00000000	1.00000000
2.00000000	0.31578947	1.00000000	1.00000000	1.00000000
2.00000000	0.42105263	1.00000000	1.00000000	1.00000000
2.00000000	0.52631579	1.00000000	1.00000000	1.00000000
2.00000000	0.63157895	1.00000000	1.00000000	1.00000000
2.00000000	0.73684211	1.00000000	1.00000000	1.00000000
2.00000000	0.84210526	1.00000000	1.00000000	1.00000000
2.00000000	0.94736842	1.00000000	1.00000000	1.00000000
2.00000000	1.05263158	1.00000000	1.00000000	1.00000000
2.00000000	1.15789474	1.00000000	1.00000000	1.00000000
2.00000000	1.26315789	1.00000000	1.00000000	1.00000000
2.00000000	1.36842105	1.00000000	1.00000000	1.00000000
2.00000000	1.47368421	1.00000000	1.00000000	1.00000000
2.00000000	1.57894737	1.00000000	1.00000000	1.00000000
2.00000000	1.68421053	1.00000000	1.00000000	1.00000000
2.00000000	1.78947368	1.00000000	1.00000000	1.00000000
2.00000000	1.89473684	1.00000000	1.00000000	1.00000000
2.00000000	2.00000000	1.00000000	1.00000000	1.00000000
