VARIABLES="X","Y","U","V""P"
ZONE  F=POINT
I=20, J=20
0.00000000	0.00000000	1.00000000	1.00000000	1.00000000
0.00000000	0.10526316	1.00000000	1.00000000	1.00000000
0.00000000	0.21052632	1.00000000	1.00000000	1.00000000
0.00000000	0.31578947	1.00000000	1.00000000	1.00000000
0.00000000	0.42105263	1.00000000	1.00000000	1.00000000
0.00000000	0.52631579	1.00000000	1.00000000	1.00000000
0.00000000	0.63157895	1.00000000	1.00000000	1.00000000
0.00000000	0.73684211	1.00000000	1.00000000	1.00000000
0.00000000	0.84210526	1.00000000	1.00000000	1.00000000
0.00000000	0.94736842	1.00000000	1.00000000	1.00000000
0.00000000	1.05263158	1.00000000	1.00000000	1.00000000
0.00000000	1.15789474	1.00000000	1.00000000	1.00000000
0.00000000	1.26315789	1.00000000	1.00000000	1.00000000
0.00000000	1.36842105	1.00000000	1.00000000	1.00000000
0.00000000	1.47368421	1.00000000	1.00000000	1.00000000
0.00000000	1.57894737	1.00000000	1.00000000	1.00000000
0.00000000	1.68421053	1.00000000	1.00000000	1.00000000
0.00000000	1.78947368	1.00000000	1.00000000	1.00000000
0.00000000	1.89473684	1.00000000	1.00000000	1.00000000
0.00000000	2.00000000	1.00000000	1.00000000	1.00000000
0.10526316	0.00000000	1.00000000	1.00000000	1.00000000
0.10526316	0.10526316	1.00000000	1.00000000	1.00000000
0.10526316	0.21052632	1.00000000	1.00000000	1.00000000
0.10526316	0.31578947	1.00000000	1.00000000	1.00000000
0.10526316	0.42105263	1.00000000	1.00000000	1.00000000
0.10526316	0.52631579	1.00000000	1.00000000	1.00000000
0.10526316	0.63157895	1.00000000	1.00000000	1.00000000
0.10526316	0.73684211	1.00000000	1.00000000	1.00000000
0.10526316	0.84210526	1.00000000	1.00000000	1.00000000
0.10526316	0.94736842	1.00000000	1.00000000	1.00000000
0.10526316	1.05263158	1.00000000	1.00000000	1.00000000
0.10526316	1.15789474	1.00000000	1.00000000	1.00000000
0.10526316	1.26315789	1.00000000	1.00000000	1.00000000
0.10526316	1.36842105	1.00000000	1.00000000	1.00000000
0.10526316	1.47368421	1.00000000	1.00000000	1.00000000
0.10526316	1.57894737	1.00000000	1.00000000	1.00000000
0.10526316	1.68421053	1.00000000	1.00000000	1.00000000
0.10526316	1.78947368	1.00000000	1.00000000	1.00000000
0.10526316	1.89473684	1.00000000	1.00000000	1.00000000
0.10526316	2.00000000	1.00000000	1.00000000	1.00000000
0.21052632	0.00000000	1.00000000	1.00000000	1.00000000
0.21052632	0.10526316	1.00000000	1.00000000	1.00000000
0.21052632	0.21052632	1.00000000	1.00000000	1.00000000
0.21052632	0.31578947	1.00000000	1.00000000	1.00000000
0.21052632	0.42105263	1.00000000	1.00000000	1.00000000
0.21052632	0.52631579	1.00000000	1.00000000	1.00000000
0.21052632	0.63157895	1.00000000	1.00000000	1.00000000
0.21052632	0.73684211	1.00000000	1.00000000	1.00000000
0.21052632	0.84210526	1.00000000	1.00000000	1.00000000
0.21052632	0.94736842	1.00000000	1.00000000	1.00000000
0.21052632	1.05263158	1.00000000	1.00000000	1.00000000
0.21052632	1.15789474	1.00000000	1.00000000	1.00000000
0.21052632	1.26315789	1.00000000	1.00000000	1.00000000
0.21052632	1.36842105	1.00000000	1.00000000	1.00000000
0.21052632	1.47368421	1.00000000	1.00000000	1.00000000
0.21052632	1.57894737	1.00000000	1.00000000	1.00000000
0.21052632	1.68421053	1.00000000	1.00000000	1.00000000
0.21052632	1.78947368	1.00000000	1.00000000	1.00000000
0.21052632	1.89473684	1.00000000	1.00000000	1.00000000
0.21052632	2.00000000	1.00000000	1.00000000	1.00000000
0.31578947	0.00000000	1.00000000	1.00000000	1.00000000
0.31578947	0.10526316	1.00000000	1.00000000	1.00000000
0.31578947	0.21052632	1.00000000	1.00000000	1.00000000
0.31578947	0.31578947	1.00000000	1.00000000	1.00000000
0.31578947	0.42105263	1.00000000	1.00000000	1.00000000
0.31578947	0.52631579	1.00000000	1.00000000	1.00000000
0.31578947	0.63157895	1.00000000	1.00000000	1.00000000
0.31578947	0.73684211	1.00000000	1.00000000	1.00000000
0.31578947	0.84210526	1.00000000	1.00000000	1.00000000
0.31578947	0.94736842	1.00000000	1.00000000	1.00000000
0.31578947	1.05263158	1.00000000	1.00000000	1.00000000
0.31578947	1.15789474	1.00000000	1.00000000	1.00000000
0.31578947	1.26315789	1.00000000	1.00000000	1.00000000
0.31578947	1.36842105	1.00000000	1.00000000	1.00000000
0.31578947	1.47368421	1.00000000	1.00000000	1.00000000
0.31578947	1.57894737	1.00000000	1.00000000	1.00000000
0.31578947	1.68421053	1.00000000	1.00000000	1.00000000
0.31578947	1.78947368	1.00000000	1.00000000	1.00000000
0.31578947	1.89473684	1.00000000	1.00000000	1.00000000
0.31578947	2.00000000	1.00000000	1.00000000	1.00000000
0.42105263	0.00000000	1.00000000	1.00000000	1.00000000
0.42105263	0.10526316	1.00000000	1.00000000	1.00000000
0.42105263	0.21052632	1.00000000	1.00000000	1.00000000
0.42105263	0.31578947	1.00000000	1.00000000	1.00000000
0.42105263	0.42105263	1.00000000	1.00000000	1.00000000
0.42105263	0.52631579	1.00000000	1.00000000	1.00000000
0.42105263	0.63157895	1.00000000	1.00000000	1.00000000
0.42105263	0.73684211	1.00000000	1.00000000	1.00000000
0.42105263	0.84210526	1.00000000	1.00000000	1.00000000
0.42105263	0.94736842	1.00000000	1.00000000	1.00000000
0.42105263	1.05263158	1.00000000	1.00000000	1.00000000
0.42105263	1.15789474	1.00000000	1.00000000	1.00000000
0.42105263	1.26315789	1.00000000	1.00000000	1.00000000
0.42105263	1.36842105	1.00000000	1.00000000	1.00000000
0.42105263	1.47368421	1.00000000	1.00000000	1.00000000
0.42105263	1.57894737	1.00000000	1.00000000	1.00000000
0.42105263	1.68421053	1.00000000	1.00000000	1.00000000
0.42105263	1.78947368	1.00000000	1.00000000	1.00000000
0.42105263	1.89473684	1.00000000	1.00000000	1.00000000
0.42105263	2.00000000	1.00000000	1.00000000	1.00000000
0.52631579	0.00000000	1.00000000	1.00000000	1.00000000
0.52631579	0.10526316	1.00000000	1.00000000	1.00000000
0.52631579	0.21052632	1.00000000	1.00000000	1.00000000
0.52631579	0.31578947	1.00000000	1.00000000	1.00000000
0.52631579	0.42105263	1.00000000	1.00000000	1.00000000
0.52631579	0.52631579	1.00000000	1.00000000	1.00000000
0.52631579	0.63157895	1.00000000	1.00000000	1.00000000
0.52631579	0.73684211	1.00000000	1.00000000	1.00000000
0.52631579	0.84210526	1.00000001	1.00000000	1.00000000
0.52631579	0.94736842	1.00000003	1.00000000	1.00000000
0.52631579	1.05263158	1.00000006	1.00000000	1.00000000
0.52631579	1.15789474	1.00000009	1.00000000	1.00000000
0.52631579	1.26315789	1.00000010	1.00000000	1.00000000
0.52631579	1.36842105	1.00000010	1.00000000	1.00000000
0.52631579	1.47368421	1.00000008	1.00000000	1.00000000
0.52631579	1.57894737	1.00000005	1.00000000	1.00000000
0.52631579	1.68421053	1.00000003	1.00000000	1.00000000
0.52631579	1.78947368	1.00000001	1.00000000	1.00000000
0.52631579	1.89473684	1.00000001	1.00000000	1.00000000
0.52631579	2.00000000	1.00000000	1.00000000	1.00000000
0.63157895	0.00000000	1.00000000	1.00000000	1.00000000
0.63157895	0.10526316	1.00000000	1.00000000	1.00000000
0.63157895	0.21052632	1.00000000	1.00000000	1.00000000
0.63157895	0.31578947	1.00000000	1.00000000	1.00000000
0.63157895	0.42105263	1.00000000	1.00000000	1.00000000
0.63157895	0.52631579	1.00000000	1.00000000	1.00000000
0.63157895	0.63157895	1.00000000	1.00000000	1.00000000
0.63157895	0.73684211	1.00000002	1.00000000	1.00000000
0.63157895	0.84210526	1.00000072	1.00000000	1.00000000
0.63157895	0.94736842	1.00000271	1.00000000	1.00000000
0.63157895	1.05263158	1.00000564	1.00000000	1.00000000
0.63157895	1.15789474	1.00000852	1.00000000	1.00000000
0.63157895	1.26315789	1.00001012	1.00000000	1.00000000
0.63157895	1.36842105	1.00000968	1.00000000	1.00000000
0.63157895	1.47368421	1.00000758	1.00000000	1.00000000
0.63157895	1.57894737	1.00000494	1.00000000	1.00000000
0.63157895	1.68421053	1.00000272	1.00000000	1.00000000
0.63157895	1.78947368	1.00000129	1.00000000	1.00000000
0.63157895	1.89473684	1.00000053	1.00000000	1.00000000
0.63157895	2.00000000	1.00000000	1.00000000	1.00000000
0.73684211	0.00000000	1.00000000	1.00000000	1.00000000
0.73684211	0.10526316	1.00000000	1.00000000	1.00000000
0.73684211	0.21052632	1.00000000	1.00000000	1.00000000
0.73684211	0.31578947	1.00000000	1.00000000	1.00000000
0.73684211	0.42105263	1.00000000	1.00000000	1.00000000
0.73684211	0.52631579	1.00000000	1.00000000	1.00000000
0.73684211	0.63157895	1.00000002	1.00000000	1.00000000
0.73684211	0.73684211	1.00000138	1.00000000	1.00000000
0.73684211	0.84210526	1.00004780	1.00000000	1.00000000
0.73684211	0.94736842	1.00017853	1.00000000	1.00000000
0.73684211	1.05263158	1.00036810	1.00000000	1.00000000
0.73684211	1.15789474	1.00055223	1.00000000	1.00000000
0.73684211	1.26315789	1.00065498	1.00000000	1.00000000
0.73684211	1.36842105	1.00062957	1.00000000	1.00000000
0.73684211	1.47368421	1.00049721	1.00000000	1.00000000
0.73684211	1.57894737	1.00032738	1.00000000	1.00000000
0.73684211	1.68421053	1.00018257	1.00000000	1.00000000
0.73684211	1.78947368	1.00008758	1.00000000	1.00000000
0.73684211	1.89473684	1.00003662	1.00000000	1.00000000
0.73684211	2.00000000	1.00000000	1.00000000	1.00000000
0.84210526	0.00000000	1.00000000	1.00000000	1.00000000
0.84210526	0.10526316	1.00000000	1.00000000	1.00000000
0.84210526	0.21052632	1.00000000	1.00000000	1.00000000
0.84210526	0.31578947	1.00000000	1.00000000	1.00000000
0.84210526	0.42105263	1.00000000	1.00000000	1.00000000
0.84210526	0.52631579	1.00000001	1.00000000	1.00000000
0.84210526	0.63157895	1.00000072	1.00000000	1.00000000
0.84210526	0.73684211	1.00004801	1.00000000	1.00000000
0.84210526	0.84210526	1.00162346	1.00000000	1.00000000
0.84210526	0.94736842	1.00591273	1.00000000	1.00000000
0.84210526	1.05263158	1.01190340	1.00000000	1.00000000
0.84210526	1.15789474	1.01751952	1.00000000	1.00000000
0.84210526	1.26315789	1.02063892	1.00000000	1.00000000
0.84210526	1.36842105	1.01998644	1.00000000	1.00000000
0.84210526	1.47368421	1.01606179	1.00000000	1.00000000
0.84210526	1.57894737	1.01080546	1.00000000	1.00000000
0.84210526	1.68421053	1.00615488	1.00000000	1.00000000
0.84210526	1.78947368	1.00300825	1.00000000	1.00000000
0.84210526	1.89473684	1.00127759	1.00000000	1.00000000
0.84210526	2.00000000	1.00000000	1.00000000	1.00000000
0.94736842	0.00000000	1.00000000	1.00000000	1.00000000
0.94736842	0.10526316	1.00000000	1.00000000	1.00000000
0.94736842	0.21052632	1.00000000	1.00000000	1.00000000
0.94736842	0.31578947	1.00000000	1.00000000	1.00000000
0.94736842	0.42105263	1.00000000	1.00000000	1.00000000
0.94736842	0.52631579	1.00000003	1.00000000	1.00000000
0.94736842	0.63157895	1.00000293	1.00000000	1.00000000
0.94736842	0.73684211	1.00019513	1.00000000	1.00000000
0.94736842	0.84210526	1.00654814	1.00000000	1.00000000
0.94736842	0.94736842	1.02334207	1.00000000	1.00000000
0.94736842	1.05263158	1.04600610	1.00000000	1.00000000
0.94736842	1.15789474	1.06657895	1.00000000	1.00000000
0.94736842	1.26315789	1.07779091	1.00000000	1.00000000
0.94736842	1.36842105	1.07547855	1.00000000	1.00000000
0.94736842	1.47368421	1.06124369	1.00000000	1.00000000
0.94736842	1.57894737	1.04172805	1.00000000	1.00000000
0.94736842	1.68421053	1.02405020	1.00000000	1.00000000
0.94736842	1.78947368	1.01185809	1.00000000	1.00000000
0.94736842	1.89473684	1.00506318	1.00000000	1.00000000
0.94736842	2.00000000	1.00000000	1.00000000	1.00000000
1.05263158	0.00000000	1.00000000	1.00000000	1.00000000
1.05263158	0.10526316	1.00000000	1.00000000	1.00000000
1.05263158	0.21052632	1.00000000	1.00000000	1.00000000
1.05263158	0.31578947	1.00000000	1.00000000	1.00000000
1.05263158	0.42105263	1.00000000	1.00000000	1.00000000
1.05263158	0.52631579	1.00000007	1.00000000	1.00000000
1.05263158	0.63157895	1.00000658	1.00000000	1.00000000
1.05263158	0.73684211	1.00044062	1.00000000	1.00000000
1.05263158	0.84210526	1.01480915	1.00000000	1.00000000
1.05263158	0.94736842	1.05223481	1.00000000	1.00000000
1.05263158	1.05263158	1.10175051	1.00000000	1.00000000
1.05263158	1.15789474	1.14583056	1.00000000	1.00000000
1.05263158	1.26315789	1.16951379	1.00000000	1.00000000
1.05263158	1.36842105	1.16452847	1.00000000	1.00000000
1.05263158	1.47368421	1.13408648	1.00000000	1.00000000
1.05263158	1.57894737	1.09187965	1.00000000	1.00000000
1.05263158	1.68421053	1.05319593	1.00000000	1.00000000
1.05263158	1.78947368	1.02628701	1.00000000	1.00000000
1.05263158	1.89473684	1.01122326	1.00000000	1.00000000
1.05263158	2.00000000	1.00000000	1.00000000	1.00000000
1.15789474	0.00000000	1.00000000	1.00000000	1.00000000
1.15789474	0.10526316	1.00000000	1.00000000	1.00000000
1.15789474	0.21052632	1.00000000	1.00000000	1.00000000
1.15789474	0.31578947	1.00000000	1.00000000	1.00000000
1.15789474	0.42105263	1.00000000	1.00000000	1.00000000
1.15789474	0.52631579	1.00000010	1.00000000	1.00000000
1.15789474	0.63157895	1.00001069	1.00000000	1.00000000
1.15789474	0.73684211	1.00072188	1.00000000	1.00000000
1.15789474	0.84210526	1.02451417	1.00000000	1.00000000
1.15789474	0.94736842	1.08668239	1.00000000	1.00000000
1.15789474	1.05263158	1.16878094	1.00000000	1.00000000
1.15789474	1.15789474	1.24155452	1.00000000	1.00000000
1.15789474	1.26315789	1.28035287	1.00000000	1.00000000
1.15789474	1.36842105	1.27178139	1.00000000	1.00000000
1.15789474	1.47368421	1.22120325	1.00000000	1.00000000
1.15789474	1.57894737	1.15122559	1.00000000	1.00000000
1.15789474	1.68421053	1.08722857	1.00000000	1.00000000
1.15789474	1.78947368	1.04288998	1.00000000	1.00000000
1.15789474	1.89473684	1.01820795	1.00000000	1.00000000
1.15789474	2.00000000	1.00000000	1.00000000	1.00000000
1.26315789	0.00000000	1.00000000	1.00000000	1.00000000
1.26315789	0.10526316	1.00000000	1.00000000	1.00000000
1.26315789	0.21052632	1.00000000	1.00000000	1.00000000
1.26315789	0.31578947	1.00000000	1.00000000	1.00000000
1.26315789	0.42105263	1.00000000	1.00000000	1.00000000
1.26315789	0.52631579	1.00000013	1.00000000	1.00000000
1.26315789	0.63157895	1.00001349	1.00000000	1.00000000
1.26315789	0.73684211	1.00092374	1.00000000	1.00000000
1.26315789	0.84210526	1.03211257	1.00000000	1.00000000
1.26315789	0.94736842	1.11618049	1.00000000	1.00000000
1.26315789	1.05263158	1.23003909	1.00000000	1.00000000
1.26315789	1.15789474	1.33273637	1.00000000	1.00000000
1.26315789	1.26315789	1.38750077	1.00000000	1.00000000
1.26315789	1.36842105	1.37427418	1.00000000	1.00000000
1.26315789	1.47368421	1.30160611	1.00000000	1.00000000
1.26315789	1.57894737	1.20321315	1.00000000	1.00000000
1.26315789	1.68421053	1.11527654	1.00000000	1.00000000
1.26315789	1.78947368	1.05575709	1.00000000	1.00000000
1.26315789	1.89473684	1.02332411	1.00000000	1.00000000
1.26315789	2.00000000	1.00000000	1.00000000	1.00000000
1.36842105	0.00000000	1.00000000	1.00000000	1.00000000
1.36842105	0.10526316	1.00000000	1.00000000	1.00000000
1.36842105	0.21052632	1.00000000	1.00000000	1.00000000
1.36842105	0.31578947	1.00000000	1.00000000	1.00000000
1.36842105	0.42105263	1.00000000	1.00000000	1.00000000
1.36842105	0.52631579	1.00000013	1.00000000	1.00000000
1.36842105	0.63157895	1.00001348	1.00000000	1.00000000
1.36842105	0.73684211	1.00093966	1.00000000	1.00000000
1.36842105	0.84210526	1.03372380	1.00000000	1.00000000
1.36842105	0.94736842	1.12738490	1.00000000	1.00000000
1.36842105	1.05263158	1.26175344	1.00000000	1.00000000
1.36842105	1.15789474	1.38867106	1.00000000	1.00000000
1.36842105	1.26315789	1.45705321	1.00000000	1.00000000
1.36842105	1.36842105	1.43816610	1.00000000	1.00000000
1.36842105	1.47368421	1.34564348	1.00000000	1.00000000
1.36842105	1.57894737	1.22617135	1.00000000	1.00000000
1.36842105	1.68421053	1.12441989	1.00000000	1.00000000
1.36842105	1.78947368	1.05853882	1.00000000	1.00000000
1.36842105	1.89473684	1.02393663	1.00000000	1.00000000
1.36842105	2.00000000	1.00000000	1.00000000	1.00000000
1.47368421	0.00000000	1.00000000	1.00000000	1.00000000
1.47368421	0.10526316	1.00000000	1.00000000	1.00000000
1.47368421	0.21052632	1.00000000	1.00000000	1.00000000
1.47368421	0.31578947	1.00000000	1.00000000	1.00000000
1.47368421	0.42105263	1.00000000	1.00000000	1.00000000
1.47368421	0.52631579	1.00000010	1.00000000	1.00000000
1.47368421	0.63157895	1.00001085	1.00000000	1.00000000
1.47368421	0.73684211	1.00076867	1.00000000	1.00000000
1.47368421	0.84210526	1.02842892	1.00000000	1.00000000
1.47368421	0.94736842	1.11275172	1.00000000	1.00000000
1.47368421	1.05263158	1.24328476	1.00000000	1.00000000
1.47368421	1.15789474	1.37549854	1.00000000	1.00000000
1.47368421	1.26315789	1.44815659	1.00000000	1.00000000
1.47368421	1.36842105	1.42471074	1.00000000	1.00000000
1.47368421	1.47368421	1.32491386	1.00000000	1.00000000
1.47368421	1.57894737	1.20455858	1.00000000	1.00000000
1.47368421	1.68421053	1.10842712	1.00000000	1.00000000
1.47368421	1.78947368	1.04945542	1.00000000	1.00000000
1.47368421	1.89473684	1.01973985	1.00000000	1.00000000
1.47368421	2.00000000	1.00000000	1.00000000	1.00000000
1.57894737	0.00000000	1.00000000	1.00000000	1.00000000
1.57894737	0.10526316	1.00000000	1.00000000	1.00000000
1.57894737	0.21052632	1.00000000	1.00000000	1.00000000
1.57894737	0.31578947	1.00000000	1.00000000	1.00000000
1.57894737	0.42105263	1.00000000	1.00000000	1.00000000
1.57894737	0.52631579	1.00000007	1.00000000	1.00000000
1.57894737	0.63157895	1.00000717	1.00000000	1.00000000
1.57894737	0.73684211	1.00051428	1.00000000	1.00000000
1.57894737	0.84210526	1.01942880	1.00000000	1.00000000
1.57894737	0.94736842	1.07991289	1.00000000	1.00000000
1.57894737	1.05263158	1.17973452	1.00000000	1.00000000
1.57894737	1.15789474	1.28790013	1.00000000	1.00000000
1.57894737	1.26315789	1.34852446	1.00000000	1.00000000
1.57894737	1.36842105	1.32606429	1.00000000	1.00000000
1.57894737	1.47368421	1.24205857	1.00000000	1.00000000
1.57894737	1.57894737	1.14725292	1.00000000	1.00000000
1.57894737	1.68421053	1.07570774	1.00000000	1.00000000
1.57894737	1.78947368	1.03370502	1.00000000	1.00000000
1.57894737	1.89473684	1.01320641	1.00000000	1.00000000
1.57894737	2.00000000	1.00000000	1.00000000	1.00000000
1.68421053	0.00000000	1.00000000	1.00000000	1.00000000
1.68421053	0.10526316	1.00000000	1.00000000	1.00000000
1.68421053	0.21052632	1.00000000	1.00000000	1.00000000
1.68421053	0.31578947	1.00000000	1.00000000	1.00000000
1.68421053	0.42105263	1.00000000	1.00000000	1.00000000
1.68421053	0.52631579	1.00000004	1.00000000	1.00000000
1.68421053	0.63157895	1.00000397	1.00000000	1.00000000
1.68421053	0.73684211	1.00028722	1.00000000	1.00000000
1.68421053	0.84210526	1.01097670	1.00000000	1.00000000
1.68421053	0.94736842	1.04590609	1.00000000	1.00000000
1.68421053	1.05263158	1.10538070	1.00000000	1.00000000
1.68421053	1.15789474	1.17227843	1.00000000	1.00000000
1.68421053	1.26315789	1.20998452	1.00000000	1.00000000
1.68421053	1.36842105	1.19456704	1.00000000	1.00000000
1.68421053	1.47368421	1.14182250	1.00000000	1.00000000
1.68421053	1.57894737	1.08466582	1.00000000	1.00000000
1.68421053	1.68421053	1.04284165	1.00000000	1.00000000
1.68421053	1.78947368	1.01883044	1.00000000	1.00000000
1.68421053	1.89473684	1.00730184	1.00000000	1.00000000
1.68421053	2.00000000	1.00000000	1.00000000	1.00000000
1.78947368	0.00000000	1.00000000	1.00000000	1.00000000
1.78947368	0.10526316	1.00000000	1.00000000	1.00000000
1.78947368	0.21052632	1.00000000	1.00000000	1.00000000
1.78947368	0.31578947	1.00000000	1.00000000	1.00000000
1.78947368	0.42105263	1.00000000	1.00000000	1.00000000
1.78947368	0.52631579	1.00000002	1.00000000	1.00000000
1.78947368	0.63157895	1.00000188	1.00000000	1.00000000
1.78947368	0.73684211	1.00013665	1.00000000	1.00000000
1.78947368	0.84210526	1.00524651	1.00000000	1.00000000
1.78947368	0.94736842	1.02195974	1.00000000	1.00000000
1.78947368	1.05263158	1.05045911	1.00000000	1.00000000
1.78947368	1.15789474	1.08264944	1.00000000	1.00000000
1.78947368	1.26315789	1.10059631	1.00000000	1.00000000
1.78947368	1.36842105	1.09278354	1.00000000	1.00000000
1.78947368	1.47368421	1.06730057	1.00000000	1.00000000
1.78947368	1.57894737	1.04001962	1.00000000	1.00000000
1.78947368	1.68421053	1.02018050	1.00000000	1.00000000
1.78947368	1.78947368	1.00883762	1.00000000	1.00000000
1.78947368	1.89473684	1.00341293	1.00000000	1.00000000
1.78947368	2.00000000	1.00000000	1.00000000	1.00000000
1.89473684	0.00000000	1.00000000	1.00000000	1.00000000
1.89473684	0.10526316	1.00000000	1.00000000	1.00000000
1.89473684	0.21052632	1.00000000	1.00000000	1.00000000
1.89473684	0.31578947	1.00000000	1.00000000	1.00000000
1.89473684	0.42105263	1.00000000	1.00000000	1.00000000
1.89473684	0.52631579	1.00000001	1.00000000	1.00000000
1.89473684	0.63157895	1.00000077	1.00000000	1.00000000
1.89473684	0.73684211	1.00005635	1.00000000	1.00000000
1.89473684	0.84210526	1.00216509	1.00000000	1.00000000
1.89473684	0.94736842	1.00899340	1.00000000	1.00000000
1.89473684	1.05263158	1.02047208	1.00000000	1.00000000
1.89473684	1.15789474	1.03325218	1.00000000	1.00000000
1.89473684	1.26315789	1.04024510	1.00000000	1.00000000
1.89473684	1.36842105	1.03707572	1.00000000	1.00000000
1.89473684	1.47368421	1.02696087	1.00000000	1.00000000
1.89473684	1.57894737	1.01609156	1.00000000	1.00000000
1.89473684	1.68421053	1.00813687	1.00000000	1.00000000
1.89473684	1.78947368	1.00356681	1.00000000	1.00000000
1.89473684	1.89473684	1.00137642	1.00000000	1.00000000
1.89473684	2.00000000	1.00000000	1.00000000	1.00000000
2.00000000	0.00000000	1.00000000	1.00000000	1.00000000
2.00000000	0.10526316	1.00000000	1.00000000	1.00000000
2.00000000	0.21052632	1.00000000	1.00000000	1.00000000
2.00000000	0.31578947	1.00000000	1.00000000	1.00000000
2.00000000	0.42105263	1.00000000	1.00000000	1.00000000
2.00000000	0.52631579	1.00000000	1.00000000	1.00000000
2.00000000	0.63157895	1.00000000	1.00000000	1.00000000
2.00000000	0.73684211	1.00000000	1.00000000	1.00000000
2.00000000	0.84210526	1.00000000	1.00000000	1.00000000
2.00000000	0.94736842	1.00000000	1.00000000	1.00000000
2.00000000	1.05263158	1.00000000	1.00000000	1.00000000
2.00000000	1.15789474	1.00000000	1.00000000	1.00000000
2.00000000	1.26315789	1.00000000	1.00000000	1.00000000
2.00000000	1.36842105	1.00000000	1.00000000	1.00000000
2.00000000	1.47368421	1.00000000	1.00000000	1.00000000
2.00000000	1.57894737	1.00000000	1.00000000	1.00000000
2.00000000	1.68421053	1.00000000	1.00000000	1.00000000
2.00000000	1.78947368	1.00000000	1.00000000	1.00000000
2.00000000	1.89473684	1.00000000	1.00000000	1.00000000
2.00000000	2.00000000	1.00000000	1.00000000	1.00000000
