VARIABLES="X","Y","U","V""P"
ZONE  F=POINT
I=20, J=20
0.00000000	0.00000000	1.00000000	1.00000000	1.00000000
0.00000000	0.10526316	1.00000000	1.00000000	1.00000000
0.00000000	0.21052632	1.00000000	1.00000000	1.00000000
0.00000000	0.31578947	1.00000000	1.00000000	1.00000000
0.00000000	0.42105263	1.00000000	1.00000000	1.00000000
0.00000000	0.52631579	1.00000000	1.00000000	1.00000000
0.00000000	0.63157895	1.00000000	1.00000000	1.00000000
0.00000000	0.73684211	1.00000000	1.00000000	1.00000000
0.00000000	0.84210526	1.00000000	1.00000000	1.00000000
0.00000000	0.94736842	1.00000000	1.00000000	1.00000000
0.00000000	1.05263158	1.00000000	1.00000000	1.00000000
0.00000000	1.15789474	1.00000000	1.00000000	1.00000000
0.00000000	1.26315789	1.00000000	1.00000000	1.00000000
0.00000000	1.36842105	1.00000000	1.00000000	1.00000000
0.00000000	1.47368421	1.00000000	1.00000000	1.00000000
0.00000000	1.57894737	1.00000000	1.00000000	1.00000000
0.00000000	1.68421053	1.00000000	1.00000000	1.00000000
0.00000000	1.78947368	1.00000000	1.00000000	1.00000000
0.00000000	1.89473684	1.00000000	1.00000000	1.00000000
0.00000000	2.00000000	1.00000000	1.00000000	1.00000000
0.10526316	0.00000000	1.00000000	1.00000000	1.00000000
0.10526316	0.10526316	1.00000000	1.00000000	1.00000000
0.10526316	0.21052632	1.00000000	1.00000000	1.00000000
0.10526316	0.31578947	1.00000000	1.00000000	1.00000000
0.10526316	0.42105263	1.00000000	1.00000000	1.00000000
0.10526316	0.52631579	1.00000000	1.00000000	1.00000000
0.10526316	0.63157895	1.00000000	1.00000000	1.00000000
0.10526316	0.73684211	1.00000000	1.00000000	1.00000000
0.10526316	0.84210526	1.00000000	1.00000000	1.00000000
0.10526316	0.94736842	1.00000000	1.00000000	1.00000000
0.10526316	1.05263158	1.00000000	1.00000000	1.00000000
0.10526316	1.15789474	1.00000000	1.00000000	1.00000000
0.10526316	1.26315789	1.00000000	1.00000000	1.00000000
0.10526316	1.36842105	1.00000000	1.00000000	1.00000000
0.10526316	1.47368421	1.00000000	1.00000000	1.00000000
0.10526316	1.57894737	1.00000000	1.00000000	1.00000000
0.10526316	1.68421053	1.00000000	1.00000000	1.00000000
0.10526316	1.78947368	1.00000000	1.00000000	1.00000000
0.10526316	1.89473684	1.00000000	1.00000000	1.00000000
0.10526316	2.00000000	1.00000000	1.00000000	1.00000000
0.21052632	0.00000000	1.00000000	1.00000000	1.00000000
0.21052632	0.10526316	1.00000000	1.00000000	1.00000000
0.21052632	0.21052632	1.00000000	1.00000000	1.00000000
0.21052632	0.31578947	1.00000000	1.00000000	1.00000000
0.21052632	0.42105263	1.00000000	1.00000000	1.00000000
0.21052632	0.52631579	1.00000000	1.00000000	1.00000000
0.21052632	0.63157895	1.00000000	1.00000000	1.00000000
0.21052632	0.73684211	1.00000000	1.00000000	1.00000000
0.21052632	0.84210526	1.00000000	1.00000000	1.00000000
0.21052632	0.94736842	1.00000000	1.00000000	1.00000000
0.21052632	1.05263158	1.00000000	1.00000000	1.00000000
0.21052632	1.15789474	1.00000000	1.00000000	1.00000000
0.21052632	1.26315789	1.00000000	1.00000000	1.00000000
0.21052632	1.36842105	1.00000000	1.00000000	1.00000000
0.21052632	1.47368421	1.00000000	1.00000000	1.00000000
0.21052632	1.57894737	1.00000000	1.00000000	1.00000000
0.21052632	1.68421053	1.00000000	1.00000000	1.00000000
0.21052632	1.78947368	1.00000000	1.00000000	1.00000000
0.21052632	1.89473684	1.00000000	1.00000000	1.00000000
0.21052632	2.00000000	1.00000000	1.00000000	1.00000000
0.31578947	0.00000000	1.00000000	1.00000000	1.00000000
0.31578947	0.10526316	1.00000000	1.00000000	1.00000000
0.31578947	0.21052632	1.00000000	1.00000000	1.00000000
0.31578947	0.31578947	1.00000000	1.00000000	1.00000000
0.31578947	0.42105263	1.00000000	1.00000000	1.00000000
0.31578947	0.52631579	1.00000000	1.00000000	1.00000000
0.31578947	0.63157895	1.00000000	1.00000000	1.00000000
0.31578947	0.73684211	1.00000000	1.00000000	1.00000000
0.31578947	0.84210526	1.00000000	1.00000000	1.00000000
0.31578947	0.94736842	1.00000000	1.00000000	1.00000000
0.31578947	1.05263158	1.00000000	1.00000000	1.00000000
0.31578947	1.15789474	1.00000000	1.00000000	1.00000000
0.31578947	1.26315789	1.00000000	1.00000000	1.00000000
0.31578947	1.36842105	1.00000000	1.00000000	1.00000000
0.31578947	1.47368421	1.00000000	1.00000000	1.00000000
0.31578947	1.57894737	1.00000000	1.00000000	1.00000000
0.31578947	1.68421053	1.00000000	1.00000000	1.00000000
0.31578947	1.78947368	1.00000000	1.00000000	1.00000000
0.31578947	1.89473684	1.00000000	1.00000000	1.00000000
0.31578947	2.00000000	1.00000000	1.00000000	1.00000000
0.42105263	0.00000000	1.00000000	1.00000000	1.00000000
0.42105263	0.10526316	1.00000000	1.00000000	1.00000000
0.42105263	0.21052632	1.00000000	1.00000000	1.00000000
0.42105263	0.31578947	1.00000000	1.00000000	1.00000000
0.42105263	0.42105263	1.00000000	1.00000000	1.00000000
0.42105263	0.52631579	1.00000000	1.00000000	1.00000000
0.42105263	0.63157895	1.00000000	1.00000000	1.00000000
0.42105263	0.73684211	1.00000000	1.00000000	1.00000000
0.42105263	0.84210526	1.00000000	1.00000000	1.00000000
0.42105263	0.94736842	1.00000000	1.00000000	1.00000000
0.42105263	1.05263158	1.00000000	1.00000000	1.00000000
0.42105263	1.15789474	1.00000000	1.00000000	1.00000000
0.42105263	1.26315789	1.00000000	1.00000000	1.00000000
0.42105263	1.36842105	1.00000000	1.00000000	1.00000000
0.42105263	1.47368421	1.00000000	1.00000000	1.00000000
0.42105263	1.57894737	1.00000000	1.00000000	1.00000000
0.42105263	1.68421053	1.00000000	1.00000000	1.00000000
0.42105263	1.78947368	1.00000000	1.00000000	1.00000000
0.42105263	1.89473684	1.00000000	1.00000000	1.00000000
0.42105263	2.00000000	1.00000000	1.00000000	1.00000000
0.52631579	0.00000000	1.00000000	1.00000000	1.00000000
0.52631579	0.10526316	1.00000000	1.00000000	1.00000000
0.52631579	0.21052632	1.00000000	1.00000000	1.00000000
0.52631579	0.31578947	1.00000000	1.00000000	1.00000000
0.52631579	0.42105263	1.00000000	1.00000000	1.00000000
0.52631579	0.52631579	1.00000000	1.00000000	1.00000000
0.52631579	0.63157895	1.00000000	1.00000000	1.00000000
0.52631579	0.73684211	1.00000000	1.00000000	1.00000000
0.52631579	0.84210526	1.00000001	1.00000000	1.00000000
0.52631579	0.94736842	1.00000003	1.00000000	1.00000000
0.52631579	1.05263158	1.00000005	1.00000000	1.00000000
0.52631579	1.15789474	1.00000008	1.00000000	1.00000000
0.52631579	1.26315789	1.00000010	1.00000000	1.00000000
0.52631579	1.36842105	1.00000010	1.00000000	1.00000000
0.52631579	1.47368421	1.00000008	1.00000000	1.00000000
0.52631579	1.57894737	1.00000005	1.00000000	1.00000000
0.52631579	1.68421053	1.00000003	1.00000000	1.00000000
0.52631579	1.78947368	1.00000001	1.00000000	1.00000000
0.52631579	1.89473684	1.00000001	1.00000000	1.00000000
0.52631579	2.00000000	1.00000000	1.00000000	1.00000000
0.63157895	0.00000000	1.00000000	1.00000000	1.00000000
0.63157895	0.10526316	1.00000000	1.00000000	1.00000000
0.63157895	0.21052632	1.00000000	1.00000000	1.00000000
0.63157895	0.31578947	1.00000000	1.00000000	1.00000000
0.63157895	0.42105263	1.00000000	1.00000000	1.00000000
0.63157895	0.52631579	1.00000000	1.00000000	1.00000000
0.63157895	0.63157895	1.00000000	1.00000000	1.00000000
0.63157895	0.73684211	1.00000002	1.00000000	1.00000000
0.63157895	0.84210526	1.00000063	1.00000000	1.00000000
0.63157895	0.94736842	1.00000243	1.00000000	1.00000000
0.63157895	1.05263158	1.00000517	1.00000000	1.00000000
0.63157895	1.15789474	1.00000794	1.00000000	1.00000000
0.63157895	1.26315789	1.00000959	1.00000000	1.00000000
0.63157895	1.36842105	1.00000935	1.00000000	1.00000000
0.63157895	1.47368421	1.00000749	1.00000000	1.00000000
0.63157895	1.57894737	1.00000500	1.00000000	1.00000000
0.63157895	1.68421053	1.00000283	1.00000000	1.00000000
0.63157895	1.78947368	1.00000138	1.00000000	1.00000000
0.63157895	1.89473684	1.00000059	1.00000000	1.00000000
0.63157895	2.00000000	1.00000000	1.00000000	1.00000000
0.73684211	0.00000000	1.00000000	1.00000000	1.00000000
0.73684211	0.10526316	1.00000000	1.00000000	1.00000000
0.73684211	0.21052632	1.00000000	1.00000000	1.00000000
0.73684211	0.31578947	1.00000000	1.00000000	1.00000000
0.73684211	0.42105263	1.00000000	1.00000000	1.00000000
0.73684211	0.52631579	1.00000000	1.00000000	1.00000000
0.73684211	0.63157895	1.00000002	1.00000000	1.00000000
0.73684211	0.73684211	1.00000121	1.00000000	1.00000000
0.73684211	0.84210526	1.00004086	1.00000000	1.00000000
0.73684211	0.94736842	1.00015580	1.00000000	1.00000000
0.73684211	1.05263158	1.00032762	1.00000000	1.00000000
0.73684211	1.15789474	1.00049978	1.00000000	1.00000000
0.73684211	1.26315789	1.00060266	1.00000000	1.00000000
0.73684211	1.36842105	1.00059029	1.00000000	1.00000000
0.73684211	1.47368421	1.00047646	1.00000000	1.00000000
0.73684211	1.57894737	1.00032147	1.00000000	1.00000000
0.73684211	1.68421053	1.00018408	1.00000000	1.00000000
0.73684211	1.78947368	1.00009081	1.00000000	1.00000000
0.73684211	1.89473684	1.00003908	1.00000000	1.00000000
0.73684211	2.00000000	1.00000000	1.00000000	1.00000000
0.84210526	0.00000000	1.00000000	1.00000000	1.00000000
0.84210526	0.10526316	1.00000000	1.00000000	1.00000000
0.84210526	0.21052632	1.00000000	1.00000000	1.00000000
0.84210526	0.31578947	1.00000000	1.00000000	1.00000000
0.84210526	0.42105263	1.00000000	1.00000000	1.00000000
0.84210526	0.52631579	1.00000001	1.00000000	1.00000000
0.84210526	0.63157895	1.00000063	1.00000000	1.00000000
0.84210526	0.73684211	1.00004105	1.00000000	1.00000000
0.84210526	0.84210526	1.00135239	1.00000000	1.00000000
0.84210526	0.94736842	1.00503359	1.00000000	1.00000000
0.84210526	1.05263158	1.01034247	1.00000000	1.00000000
0.84210526	1.15789474	1.01548189	1.00000000	1.00000000
0.84210526	1.26315789	1.01853012	1.00000000	1.00000000
0.84210526	1.36842105	1.01826068	1.00000000	1.00000000
0.84210526	1.47368421	1.01497656	1.00000000	1.00000000
0.84210526	1.57894737	1.01031287	1.00000000	1.00000000
0.84210526	1.68421053	1.00602761	1.00000000	1.00000000
0.84210526	1.78947368	1.00302846	1.00000000	1.00000000
0.84210526	1.89473684	1.00132375	1.00000000	1.00000000
0.84210526	2.00000000	1.00000000	1.00000000	1.00000000
0.94736842	0.00000000	1.00000000	1.00000000	1.00000000
0.94736842	0.10526316	1.00000000	1.00000000	1.00000000
0.94736842	0.21052632	1.00000000	1.00000000	1.00000000
0.94736842	0.31578947	1.00000000	1.00000000	1.00000000
0.94736842	0.42105263	1.00000000	1.00000000	1.00000000
0.94736842	0.52631579	1.00000003	1.00000000	1.00000000
0.94736842	0.63157895	1.00000263	1.00000000	1.00000000
0.94736842	0.73684211	1.00017002	1.00000000	1.00000000
0.94736842	0.84210526	1.00555987	1.00000000	1.00000000
0.94736842	0.94736842	1.02025983	1.00000000	1.00000000
0.94736842	1.05263158	1.04075150	1.00000000	1.00000000
0.94736842	1.15789474	1.05995673	1.00000000	1.00000000
0.94736842	1.26315789	1.07112251	1.00000000	1.00000000
0.94736842	1.36842105	1.07016660	1.00000000	1.00000000
0.94736842	1.47368421	1.05806840	1.00000000	1.00000000
0.94736842	1.57894737	1.04049085	1.00000000	1.00000000
0.94736842	1.68421053	1.02395301	1.00000000	1.00000000
0.94736842	1.78947368	1.01214734	1.00000000	1.00000000
0.94736842	1.89473684	1.00534162	1.00000000	1.00000000
0.94736842	2.00000000	1.00000000	1.00000000	1.00000000
1.05263158	0.00000000	1.00000000	1.00000000	1.00000000
1.05263158	0.10526316	1.00000000	1.00000000	1.00000000
1.05263158	0.21052632	1.00000000	1.00000000	1.00000000
1.05263158	0.31578947	1.00000000	1.00000000	1.00000000
1.05263158	0.42105263	1.00000000	1.00000000	1.00000000
1.05263158	0.52631579	1.00000006	1.00000000	1.00000000
1.05263158	0.63157895	1.00000602	1.00000000	1.00000000
1.05263158	0.73684211	1.00039107	1.00000000	1.00000000
1.05263158	0.84210526	1.01280082	1.00000000	1.00000000
1.05263158	0.94736842	1.04613111	1.00000000	1.00000000
1.05263158	1.05263158	1.09164554	1.00000000	1.00000000
1.05263158	1.15789474	1.13343764	1.00000000	1.00000000
1.05263158	1.26315789	1.15737452	1.00000000	1.00000000
1.05263158	1.36842105	1.15525082	1.00000000	1.00000000
1.05263158	1.47368421	1.12905221	1.00000000	1.00000000
1.05263158	1.57894737	1.09054436	1.00000000	1.00000000
1.05263158	1.68421053	1.05384914	1.00000000	1.00000000
1.05263158	1.78947368	1.02739381	1.00000000	1.00000000
1.05263158	1.89473684	1.01205496	1.00000000	1.00000000
1.05263158	2.00000000	1.00000000	1.00000000	1.00000000
1.15789474	0.00000000	1.00000000	1.00000000	1.00000000
1.15789474	0.10526316	1.00000000	1.00000000	1.00000000
1.15789474	0.21052632	1.00000000	1.00000000	1.00000000
1.15789474	0.31578947	1.00000000	1.00000000	1.00000000
1.15789474	0.42105263	1.00000000	1.00000000	1.00000000
1.15789474	0.52631579	1.00000010	1.00000000	1.00000000
1.15789474	0.63157895	1.00000994	1.00000000	1.00000000
1.15789474	0.73684211	1.00065111	1.00000000	1.00000000
1.15789474	0.84210526	1.02151446	1.00000000	1.00000000
1.15789474	0.94736842	1.07764729	1.00000000	1.00000000
1.15789474	1.05263158	1.15404684	1.00000000	1.00000000
1.15789474	1.15789474	1.22380336	1.00000000	1.00000000
1.15789474	1.26315789	1.26344228	1.00000000	1.00000000
1.15789474	1.36842105	1.25960038	1.00000000	1.00000000
1.15789474	1.47368421	1.21563606	1.00000000	1.00000000
1.15789474	1.57894737	1.15108665	1.00000000	1.00000000
1.15789474	1.68421053	1.08961325	1.00000000	1.00000000
1.15789474	1.78947368	1.04540314	1.00000000	1.00000000
1.15789474	1.89473684	1.01988112	1.00000000	1.00000000
1.15789474	2.00000000	1.00000000	1.00000000	1.00000000
1.26315789	0.00000000	1.00000000	1.00000000	1.00000000
1.26315789	0.10526316	1.00000000	1.00000000	1.00000000
1.26315789	0.21052632	1.00000000	1.00000000	1.00000000
1.26315789	0.31578947	1.00000000	1.00000000	1.00000000
1.26315789	0.42105263	1.00000000	1.00000000	1.00000000
1.26315789	0.52631579	1.00000013	1.00000000	1.00000000
1.26315789	0.63157895	1.00001276	1.00000000	1.00000000
1.26315789	0.73684211	1.00084735	1.00000000	1.00000000
1.26315789	0.84210526	1.02861772	1.00000000	1.00000000
1.26315789	0.94736842	1.10548221	1.00000000	1.00000000
1.26315789	1.05263158	1.21251495	1.00000000	1.00000000
1.26315789	1.15789474	1.31177230	1.00000000	1.00000000
1.26315789	1.26315789	1.36823051	1.00000000	1.00000000
1.26315789	1.36842105	1.36182962	1.00000000	1.00000000
1.26315789	1.47368421	1.29802457	1.00000000	1.00000000
1.26315789	1.57894737	1.20615330	1.00000000	1.00000000
1.26315789	1.68421053	1.12043544	1.00000000	1.00000000
1.26315789	1.78947368	1.06009003	1.00000000	1.00000000
1.26315789	1.89473684	1.02594467	1.00000000	1.00000000
1.26315789	2.00000000	1.00000000	1.00000000	1.00000000
1.36842105	0.00000000	1.00000000	1.00000000	1.00000000
1.36842105	0.10526316	1.00000000	1.00000000	1.00000000
1.36842105	0.21052632	1.00000000	1.00000000	1.00000000
1.36842105	0.31578947	1.00000000	1.00000000	1.00000000
1.36842105	0.42105263	1.00000000	1.00000000	1.00000000
1.36842105	0.52631579	1.00000013	1.00000000	1.00000000
1.36842105	0.63157895	1.00001302	1.00000000	1.00000000
1.36842105	0.73684211	1.00087937	1.00000000	1.00000000
1.36842105	0.84210526	1.03061320	1.00000000	1.00000000
1.36842105	0.94736842	1.11755180	1.00000000	1.00000000
1.36842105	1.05263158	1.24537386	1.00000000	1.00000000
1.36842105	1.15789474	1.36920492	1.00000000	1.00000000
1.36842105	1.26315789	1.44052309	1.00000000	1.00000000
1.36842105	1.36842105	1.43043546	1.00000000	1.00000000
1.36842105	1.47368421	1.34793898	1.00000000	1.00000000
1.36842105	1.57894737	1.23429286	1.00000000	1.00000000
1.36842105	1.68421053	1.13294185	1.00000000	1.00000000
1.36842105	1.78947368	1.06456872	1.00000000	1.00000000
1.36842105	1.89473684	1.02725612	1.00000000	1.00000000
1.36842105	2.00000000	1.00000000	1.00000000	1.00000000
1.47368421	0.00000000	1.00000000	1.00000000	1.00000000
1.47368421	0.10526316	1.00000000	1.00000000	1.00000000
1.47368421	0.21052632	1.00000000	1.00000000	1.00000000
1.47368421	0.31578947	1.00000000	1.00000000	1.00000000
1.47368421	0.42105263	1.00000000	1.00000000	1.00000000
1.47368421	0.52631579	1.00000011	1.00000000	1.00000000
1.47368421	0.63157895	1.00001073	1.00000000	1.00000000
1.47368421	0.73684211	1.00073647	1.00000000	1.00000000
1.47368421	0.84210526	1.02640186	1.00000000	1.00000000
1.47368421	0.94736842	1.10633098	1.00000000	1.00000000
1.47368421	1.05263158	1.23286441	1.00000000	1.00000000
1.47368421	1.15789474	1.36408923	1.00000000	1.00000000
1.47368421	1.26315789	1.44147852	1.00000000	1.00000000
1.47368421	1.36842105	1.42754898	1.00000000	1.00000000
1.47368421	1.47368421	1.33607642	1.00000000	1.00000000
1.47368421	1.57894737	1.21809390	1.00000000	1.00000000
1.47368421	1.68421053	1.11928165	1.00000000	1.00000000
1.47368421	1.78947368	1.05613957	1.00000000	1.00000000
1.47368421	1.89473684	1.02311626	1.00000000	1.00000000
1.47368421	2.00000000	1.00000000	1.00000000	1.00000000
1.57894737	0.00000000	1.00000000	1.00000000	1.00000000
1.57894737	0.10526316	1.00000000	1.00000000	1.00000000
1.57894737	0.21052632	1.00000000	1.00000000	1.00000000
1.57894737	0.31578947	1.00000000	1.00000000	1.00000000
1.57894737	0.42105263	1.00000000	1.00000000	1.00000000
1.57894737	0.52631579	1.00000007	1.00000000	1.00000000
1.57894737	0.63157895	1.00000728	1.00000000	1.00000000
1.57894737	0.73684211	1.00050588	1.00000000	1.00000000
1.57894737	0.84210526	1.01852876	1.00000000	1.00000000
1.57894737	0.94736842	1.07744694	1.00000000	1.00000000
1.57894737	1.05263158	1.17698121	1.00000000	1.00000000
1.57894737	1.15789474	1.28754963	1.00000000	1.00000000
1.57894737	1.26315789	1.35443925	1.00000000	1.00000000
1.57894737	1.36842105	1.33965707	1.00000000	1.00000000
1.57894737	1.47368421	1.25937525	1.00000000	1.00000000
1.57894737	1.57894737	1.16256947	1.00000000	1.00000000
1.57894737	1.68421053	1.08612600	1.00000000	1.00000000
1.57894737	1.78947368	1.03950453	1.00000000	1.00000000
1.57894737	1.89473684	1.01594776	1.00000000	1.00000000
1.57894737	2.00000000	1.00000000	1.00000000	1.00000000
1.68421053	0.00000000	1.00000000	1.00000000	1.00000000
1.68421053	0.10526316	1.00000000	1.00000000	1.00000000
1.68421053	0.21052632	1.00000000	1.00000000	1.00000000
1.68421053	0.31578947	1.00000000	1.00000000	1.00000000
1.68421053	0.42105263	1.00000000	1.00000000	1.00000000
1.68421053	0.52631579	1.00000004	1.00000000	1.00000000
1.68421053	0.63157895	1.00000414	1.00000000	1.00000000
1.68421053	0.73684211	1.00029061	1.00000000	1.00000000
1.68421053	0.84210526	1.01077525	1.00000000	1.00000000
1.68421053	0.94736842	1.04587985	1.00000000	1.00000000
1.68421053	1.05263158	1.10726595	1.00000000	1.00000000
1.68421053	1.15789474	1.17832766	1.00000000	1.00000000
1.68421053	1.26315789	1.22182702	1.00000000	1.00000000
1.68421053	1.36842105	1.21073521	1.00000000	1.00000000
1.68421053	1.47368421	1.15787557	1.00000000	1.00000000
1.68421053	1.57894737	1.09692096	1.00000000	1.00000000
1.68421053	1.68421053	1.05043453	1.00000000	1.00000000
1.68421053	1.78947368	1.02280270	1.00000000	1.00000000
1.68421053	1.89473684	1.00909975	1.00000000	1.00000000
1.68421053	2.00000000	1.00000000	1.00000000	1.00000000
1.78947368	0.00000000	1.00000000	1.00000000	1.00000000
1.78947368	0.10526316	1.00000000	1.00000000	1.00000000
1.78947368	0.21052632	1.00000000	1.00000000	1.00000000
1.78947368	0.31578947	1.00000000	1.00000000	1.00000000
1.78947368	0.42105263	1.00000000	1.00000000	1.00000000
1.78947368	0.52631579	1.00000002	1.00000000	1.00000000
1.78947368	0.63157895	1.00000202	1.00000000	1.00000000
1.78947368	0.73684211	1.00014239	1.00000000	1.00000000
1.78947368	0.84210526	1.00530759	1.00000000	1.00000000
1.78947368	0.94736842	1.02265957	1.00000000	1.00000000
1.78947368	1.05263158	1.05314599	1.00000000	1.00000000
1.78947368	1.15789474	1.08871703	1.00000000	1.00000000
1.78947368	1.26315789	1.11034630	1.00000000	1.00000000
1.78947368	1.36842105	1.10431946	1.00000000	1.00000000
1.78947368	1.47368421	1.07765729	1.00000000	1.00000000
1.78947368	1.57894737	1.04740701	1.00000000	1.00000000
1.78947368	1.68421053	1.02455086	1.00000000	1.00000000
1.78947368	1.78947368	1.01104931	1.00000000	1.00000000
1.78947368	1.89473684	1.00438876	1.00000000	1.00000000
1.78947368	2.00000000	1.00000000	1.00000000	1.00000000
1.89473684	0.00000000	1.00000000	1.00000000	1.00000000
1.89473684	0.10526316	1.00000000	1.00000000	1.00000000
1.89473684	0.21052632	1.00000000	1.00000000	1.00000000
1.89473684	0.31578947	1.00000000	1.00000000	1.00000000
1.89473684	0.42105263	1.00000000	1.00000000	1.00000000
1.89473684	0.52631579	1.00000001	1.00000000	1.00000000
1.89473684	0.63157895	1.00000085	1.00000000	1.00000000
1.89473684	0.73684211	1.00006050	1.00000000	1.00000000
1.89473684	0.84210526	1.00225823	1.00000000	1.00000000
1.89473684	0.94736842	1.00958015	1.00000000	1.00000000
1.89473684	1.05263158	1.02228805	1.00000000	1.00000000
1.89473684	1.15789474	1.03693295	1.00000000	1.00000000
1.89473684	1.26315789	1.04568799	1.00000000	1.00000000
1.89473684	1.36842105	1.04311115	1.00000000	1.00000000
1.89473684	1.47368421	1.03214115	1.00000000	1.00000000
1.89473684	1.57894737	1.01967810	1.00000000	1.00000000
1.89473684	1.68421053	1.01021418	1.00000000	1.00000000
1.89473684	1.78947368	1.00460033	1.00000000	1.00000000
1.89473684	1.89473684	1.00182568	1.00000000	1.00000000
1.89473684	2.00000000	1.00000000	1.00000000	1.00000000
2.00000000	0.00000000	1.00000000	1.00000000	1.00000000
2.00000000	0.10526316	1.00000000	1.00000000	1.00000000
2.00000000	0.21052632	1.00000000	1.00000000	1.00000000
2.00000000	0.31578947	1.00000000	1.00000000	1.00000000
2.00000000	0.42105263	1.00000000	1.00000000	1.00000000
2.00000000	0.52631579	1.00000000	1.00000000	1.00000000
2.00000000	0.63157895	1.00000000	1.00000000	1.00000000
2.00000000	0.73684211	1.00000000	1.00000000	1.00000000
2.00000000	0.84210526	1.00000000	1.00000000	1.00000000
2.00000000	0.94736842	1.00000000	1.00000000	1.00000000
2.00000000	1.05263158	1.00000000	1.00000000	1.00000000
2.00000000	1.15789474	1.00000000	1.00000000	1.00000000
2.00000000	1.26315789	1.00000000	1.00000000	1.00000000
2.00000000	1.36842105	1.00000000	1.00000000	1.00000000
2.00000000	1.47368421	1.00000000	1.00000000	1.00000000
2.00000000	1.57894737	1.00000000	1.00000000	1.00000000
2.00000000	1.68421053	1.00000000	1.00000000	1.00000000
2.00000000	1.78947368	1.00000000	1.00000000	1.00000000
2.00000000	1.89473684	1.00000000	1.00000000	1.00000000
2.00000000	2.00000000	1.00000000	1.00000000	1.00000000
