VARIABLES="X","Y","U","V""P"
ZONE  F=POINT
I=20, J=20
0.00000000	0.00000000	0.00000000	0.00000000	0.00069212
0.00000000	0.10526316	0.00000000	0.00000000	0.00069291
0.00000000	0.21052632	0.00000000	0.00000000	0.00069693
0.00000000	0.31578947	0.00000000	0.00000000	0.00070511
0.00000000	0.42105263	0.00000000	0.00000000	0.00071772
0.00000000	0.52631579	0.00000000	0.00000000	0.00073525
0.00000000	0.63157895	0.00000000	0.00000000	0.00075840
0.00000000	0.73684211	0.00000000	0.00000000	0.00078824
0.00000000	0.84210526	0.00000000	0.00000000	0.00082634
0.00000000	0.94736842	0.00000000	0.00000000	0.00087504
0.00000000	1.05263158	0.00000000	0.00000000	0.00093783
0.00000000	1.15789474	0.00000000	0.00000000	0.00102015
0.00000000	1.26315789	0.00000000	0.00000000	0.00113065
0.00000000	1.36842105	0.00000000	0.00000000	0.00128386
0.00000000	1.47368421	0.00000000	0.00000000	0.00150554
0.00000000	1.57894737	0.00000000	0.00000000	0.00184532
0.00000000	1.68421053	0.00000000	0.00000000	0.00240849
0.00000000	1.78947368	0.00000000	0.00000000	0.00342404
0.00000000	1.89473684	0.00000000	0.00000000	0.00492863
0.00000000	2.00000000	1.00000000	0.00000000	0.00000000
0.10526316	0.00000000	0.00000000	0.00000000	0.00069291
0.10526316	0.10526316	0.00000007	0.00003877	0.00069291
0.10526316	0.21052632	0.00000009	0.00004434	0.00069693
0.10526316	0.31578947	0.00000012	0.00004528	0.00070511
0.10526316	0.42105263	0.00000016	0.00004592	0.00071772
0.10526316	0.52631579	0.00000022	0.00004681	0.00073525
0.10526316	0.63157895	0.00000031	0.00004804	0.00075840
0.10526316	0.73684211	0.00000044	0.00004966	0.00078824
0.10526316	0.84210526	0.00000064	0.00005174	0.00082634
0.10526316	0.94736842	0.00000095	0.00005440	0.00087504
0.10526316	1.05263158	0.00000145	0.00005779	0.00093783
0.10526316	1.15789474	0.00000248	0.00006214	0.00102015
0.10526316	1.26315789	0.00000679	0.00006783	0.00113065
0.10526316	1.36842105	0.00004082	0.00007544	0.00128386
0.10526316	1.47368421	0.00033076	0.00008593	0.00150554
0.10526316	1.57894737	0.00248714	0.00010094	0.00184532
0.10526316	1.68421053	0.01560725	0.00012304	0.00240849
0.10526316	1.78947368	0.07817261	0.00015381	0.00342404
0.10526316	1.89473684	0.30581896	0.00017292	0.00492863
0.10526316	2.00000000	1.00000000	0.00000000	0.00000000
0.21052632	0.00000000	0.00000000	0.00000000	0.00069201
0.21052632	0.10526316	0.00000018	0.00004424	0.00069201
0.21052632	0.21052632	0.00000023	0.00005099	0.00069592
0.21052632	0.31578947	0.00000029	0.00005214	0.00070385
0.21052632	0.42105263	0.00000039	0.00005287	0.00071605
0.21052632	0.52631579	0.00000054	0.00005388	0.00073292
0.21052632	0.63157895	0.00000076	0.00005526	0.00075511
0.21052632	0.73684211	0.00000109	0.00005707	0.00078350
0.21052632	0.84210526	0.00000159	0.00005939	0.00081943
0.21052632	0.94736842	0.00000234	0.00006231	0.00086481
0.21052632	1.05263158	0.00000352	0.00006600	0.00092245
0.21052632	1.15789474	0.00000568	0.00007066	0.00099646
0.21052632	1.26315789	0.00001294	0.00007663	0.00109295
0.21052632	1.36842105	0.00006314	0.00008439	0.00122099
0.21052632	1.47368421	0.00047690	0.00009461	0.00139370
0.21052632	1.57894737	0.00351335	0.00010827	0.00162785
0.21052632	1.68421053	0.02169291	0.00012631	0.00193466
0.21052632	1.78947368	0.10563180	0.00014688	0.00226354
0.21052632	1.89473684	0.38506230	0.00014789	0.00220601
0.21052632	2.00000000	1.00000000	0.00000000	0.00000000
0.31578947	0.00000000	0.00000000	0.00000000	0.00069034
0.31578947	0.10526316	0.00000027	0.00004478	0.00069034
0.31578947	0.21052632	0.00000035	0.00005168	0.00069403
0.31578947	0.31578947	0.00000044	0.00005285	0.00070149
0.31578947	0.42105263	0.00000059	0.00005356	0.00071291
0.31578947	0.52631579	0.00000081	0.00005452	0.00072860
0.31578947	0.63157895	0.00000115	0.00005584	0.00074899
0.31578947	0.73684211	0.00000164	0.00005754	0.00077472
0.31578947	0.84210526	0.00000236	0.00005969	0.00080671
0.31578947	0.94736842	0.00000343	0.00006236	0.00084617
0.31578947	1.05263158	0.00000507	0.00006565	0.00089477
0.31578947	1.15789474	0.00000791	0.00006968	0.00095468
0.31578947	1.26315789	0.00001636	0.00007465	0.00102851
0.31578947	1.36842105	0.00007104	0.00008075	0.00111883
0.31578947	1.47368421	0.00051612	0.00008819	0.00122629
0.31578947	1.57894737	0.00377261	0.00009700	0.00134394
0.31578947	1.68421053	0.02319807	0.00010652	0.00144128
0.31578947	1.78947368	0.11222659	0.00011337	0.00142505
0.31578947	1.89473684	0.40272903	0.00010176	0.00106232
0.31578947	2.00000000	1.00000000	0.00000000	0.00000000
0.42105263	0.00000000	0.00000000	0.00000000	0.00068810
0.42105263	0.10526316	0.00000033	0.00004470	0.00068810
0.42105263	0.21052632	0.00000043	0.00005159	0.00069150
0.42105263	0.31578947	0.00000054	0.00005273	0.00069834
0.42105263	0.42105263	0.00000072	0.00005339	0.00070873
0.42105263	0.52631579	0.00000098	0.00005428	0.00072283
0.42105263	0.63157895	0.00000138	0.00005547	0.00074088
0.42105263	0.73684211	0.00000196	0.00005699	0.00076317
0.42105263	0.84210526	0.00000280	0.00005887	0.00079010
0.42105263	0.94736842	0.00000402	0.00006114	0.00082214
0.42105263	1.05263158	0.00000583	0.00006383	0.00085974
0.42105263	1.15789474	0.00000882	0.00006700	0.00090319
0.42105263	1.26315789	0.00001732	0.00007066	0.00095213
0.42105263	1.36842105	0.00007215	0.00007478	0.00100447
0.42105263	1.47368421	0.00052108	0.00007919	0.00105407
0.42105263	1.57894737	0.00381347	0.00008340	0.00108576
0.42105263	1.68421053	0.02345898	0.00008618	0.00106659
0.42105263	1.78947368	0.11341665	0.00008448	0.00093345
0.42105263	1.89473684	0.40597874	0.00006867	0.00059345
0.42105263	2.00000000	1.00000000	0.00000000	0.00000000
0.52631579	0.00000000	0.00000000	0.00000000	0.00068557
0.52631579	0.10526316	0.00000035	0.00004453	0.00068557
0.52631579	0.21052632	0.00000045	0.00005140	0.00068864
0.52631579	0.31578947	0.00000057	0.00005251	0.00069479
0.52631579	0.42105263	0.00000075	0.00005312	0.00070404
0.52631579	0.52631579	0.00000103	0.00005391	0.00071638
0.52631579	0.63157895	0.00000144	0.00005496	0.00073184
0.52631579	0.73684211	0.00000203	0.00005627	0.00075039
0.52631579	0.84210526	0.00000287	0.00005785	0.00077192
0.52631579	0.94736842	0.00000407	0.00005968	0.00079619
0.52631579	1.05263158	0.00000579	0.00006176	0.00082266
0.52631579	1.15789474	0.00000855	0.00006403	0.00085020
0.52631579	1.26315789	0.00001651	0.00006641	0.00087654
0.52631579	1.36842105	0.00007026	0.00006871	0.00089732
0.52631579	1.47368421	0.00051761	0.00007059	0.00090437
0.52631579	1.57894737	0.00381140	0.00007139	0.00088321
0.52631579	1.68421053	0.02348340	0.00006994	0.00081007
0.52631579	1.78947368	0.11357530	0.00006411	0.00065196
0.52631579	1.89473684	0.40646712	0.00004829	0.00037834
0.52631579	2.00000000	1.00000000	0.00000000	0.00000000
0.63157895	0.00000000	0.00000000	0.00000000	0.00068307
0.63157895	0.10526316	0.00000032	0.00004437	0.00068307
0.63157895	0.21052632	0.00000042	0.00005120	0.00068582
0.63157895	0.31578947	0.00000053	0.00005228	0.00069129
0.63157895	0.42105263	0.00000070	0.00005283	0.00069941
0.63157895	0.52631579	0.00000095	0.00005353	0.00071005
0.63157895	0.63157895	0.00000133	0.00005445	0.00072301
0.63157895	0.73684211	0.00000186	0.00005556	0.00073798
0.63157895	0.84210526	0.00000260	0.00005685	0.00075444
0.63157895	0.94736842	0.00000364	0.00005828	0.00077159
0.63157895	1.05263158	0.00000510	0.00005978	0.00078817
0.63157895	1.15789474	0.00000740	0.00006125	0.00080216
0.63157895	1.26315789	0.00001461	0.00006254	0.00081038
0.63157895	1.36842105	0.00006709	0.00006339	0.00080784
0.63157895	1.47368421	0.00051249	0.00006339	0.00078690
0.63157895	1.57894737	0.00380394	0.00006194	0.00073647
0.63157895	1.68421053	0.02347630	0.00005814	0.00064206
0.63157895	1.78947368	0.11358349	0.00005064	0.00048854
0.63157895	1.89473684	0.40652293	0.00003611	0.00026900
0.63157895	2.00000000	1.00000000	0.00000000	0.00000000
0.73684211	0.00000000	0.00000000	0.00000000	0.00068091
0.73684211	0.10526316	0.00000026	0.00004422	0.00068091
0.73684211	0.21052632	0.00000034	0.00005102	0.00068338
0.73684211	0.31578947	0.00000043	0.00005208	0.00068826
0.73684211	0.42105263	0.00000056	0.00005259	0.00069541
0.73684211	0.52631579	0.00000077	0.00005321	0.00070459
0.73684211	0.63157895	0.00000106	0.00005400	0.00071543
0.73684211	0.73684211	0.00000148	0.00005495	0.00072739
0.73684211	0.84210526	0.00000205	0.00005599	0.00073964
0.73684211	0.94736842	0.00000285	0.00005708	0.00075101
0.73684211	1.05263158	0.00000393	0.00005812	0.00075976
0.73684211	1.15789474	0.00000570	0.00005896	0.00076344
0.73684211	1.26315789	0.00001212	0.00005942	0.00075857
0.73684211	1.36842105	0.00006348	0.00005921	0.00074033
0.73684211	1.47368421	0.00050740	0.00005795	0.00070240
0.73684211	1.57894737	0.00379714	0.00005513	0.00063700
0.73684211	1.68421053	0.02346831	0.00005012	0.00053593
0.73684211	1.78947368	0.11357712	0.00004210	0.00039323
0.73684211	1.89473684	0.40652448	0.00002891	0.00021000
0.73684211	2.00000000	1.00000000	0.00000000	0.00000000
0.84210526	0.00000000	0.00000000	0.00000000	0.00067935
0.84210526	0.10526316	0.00000016	0.00004411	0.00067935
0.84210526	0.21052632	0.00000022	0.00005090	0.00068162
0.84210526	0.31578947	0.00000027	0.00005193	0.00068608
0.84210526	0.42105263	0.00000036	0.00005240	0.00069252
0.84210526	0.52631579	0.00000049	0.00005297	0.00070064
0.84210526	0.63157895	0.00000068	0.00005368	0.00070996
0.84210526	0.73684211	0.00000094	0.00005450	0.00071977
0.84210526	0.84210526	0.00000130	0.00005537	0.00072905
0.84210526	0.94736842	0.00000179	0.00005622	0.00073639
0.84210526	1.05263158	0.00000247	0.00005693	0.00073981
0.84210526	1.15789474	0.00000367	0.00005735	0.00073667
0.84210526	1.26315789	0.00000936	0.00005726	0.00072346
0.84210526	1.36842105	0.00005981	0.00005638	0.00069579
0.84210526	1.47368421	0.00050270	0.00005436	0.00064846
0.84210526	1.57894737	0.00379147	0.00005078	0.00057601
0.84210526	1.68421053	0.02346213	0.00004519	0.00047382
0.84210526	1.78947368	0.11357162	0.00003707	0.00034012
0.84210526	1.89473684	0.40652166	0.00002485	0.00017855
0.84210526	2.00000000	1.00000000	0.00000000	0.00000000
0.94736842	0.00000000	0.00000000	0.00000000	0.00067860
0.94736842	0.10526316	0.00000005	0.00004406	0.00067860
0.94736842	0.21052632	0.00000007	0.00005083	0.00068077
0.94736842	0.31578947	0.00000009	0.00005186	0.00068500
0.94736842	0.42105263	0.00000011	0.00005231	0.00069108
0.94736842	0.52631579	0.00000016	0.00005285	0.00069866
0.94736842	0.63157895	0.00000022	0.00005351	0.00070720
0.94736842	0.73684211	0.00000031	0.00005427	0.00071590
0.94736842	0.84210526	0.00000043	0.00005505	0.00072367
0.94736842	0.94736842	0.00000059	0.00005578	0.00072897
0.94736842	1.05263158	0.00000084	0.00005633	0.00072973
0.94736842	1.15789474	0.00000149	0.00005653	0.00072323
0.94736842	1.26315789	0.00000651	0.00005616	0.00070602
0.94736842	1.36842105	0.00005620	0.00005496	0.00067397
0.94736842	1.47368421	0.00049833	0.00005259	0.00062251
0.94736842	1.57894737	0.00378653	0.00004868	0.00054731
0.94736842	1.68421053	0.02345711	0.00004286	0.00044531
0.94736842	1.78947368	0.11356736	0.00003474	0.00031636
0.94736842	1.89473684	0.40651921	0.00002297	0.00016477
0.94736842	2.00000000	1.00000000	0.00000000	0.00000000
1.05263158	0.00000000	0.00000000	0.00000000	0.00067875
1.05263158	0.10526316	-0.00000007	0.00004406	0.00067875
1.05263158	0.21052632	-0.00000009	0.00005084	0.00068093
1.05263158	0.31578947	-0.00000011	0.00005187	0.00068517
1.05263158	0.42105263	-0.00000014	0.00005232	0.00069128
1.05263158	0.52631579	-0.00000019	0.00005286	0.00069888
1.05263158	0.63157895	-0.00000026	0.00005352	0.00070745
1.05263158	0.73684211	-0.00000035	0.00005428	0.00071619
1.05263158	0.84210526	-0.00000048	0.00005507	0.00072401
1.05263158	0.94736842	-0.00000065	0.00005579	0.00072936
1.05263158	1.05263158	-0.00000085	0.00005634	0.00073018
1.05263158	1.15789474	-0.00000074	0.00005655	0.00072373
1.05263158	1.26315789	0.00000362	0.00005618	0.00070656
1.05263158	1.36842105	0.00005261	0.00005498	0.00067453
1.05263158	1.47368421	0.00049407	0.00005261	0.00062307
1.05263158	1.57894737	0.00378184	0.00004870	0.00054781
1.05263158	1.68421053	0.02345247	0.00004287	0.00044571
1.05263158	1.78947368	0.11356349	0.00003470	0.00031661
1.05263158	1.89473684	0.40651697	0.00002287	0.00016488
1.05263158	2.00000000	1.00000000	0.00000000	0.00000000
1.15789474	0.00000000	0.00000000	0.00000000	0.00067981
1.15789474	0.10526316	-0.00000019	0.00004413	0.00067981
1.15789474	0.21052632	-0.00000024	0.00005092	0.00068210
1.15789474	0.31578947	-0.00000030	0.00005195	0.00068659
1.15789474	0.42105263	-0.00000039	0.00005243	0.00069309
1.15789474	0.52631579	-0.00000052	0.00005299	0.00070129
1.15789474	0.63157895	-0.00000072	0.00005371	0.00071071
1.15789474	0.73684211	-0.00000099	0.00005453	0.00072064
1.15789474	0.84210526	-0.00000136	0.00005541	0.00073006
1.15789474	0.94736842	-0.00000185	0.00005626	0.00073756
1.15789474	1.05263158	-0.00000248	0.00005698	0.00074116
1.15789474	1.15789474	-0.00000292	0.00005740	0.00073818
1.15789474	1.26315789	0.00000076	0.00005732	0.00072511
1.15789474	1.36842105	0.00004898	0.00005645	0.00069752
1.15789474	1.47368421	0.00048969	0.00005443	0.00065018
1.15789474	1.57894737	0.00377689	0.00005084	0.00057758
1.15789474	1.68421053	0.02344743	0.00004522	0.00047507
1.15789474	1.78947368	0.11355916	0.00003697	0.00034092
1.15789474	1.89473684	0.40651436	0.00002452	0.00017887
1.15789474	2.00000000	1.00000000	0.00000000	0.00000000
1.26315789	0.00000000	0.00000000	0.00000000	0.00068166
1.26315789	0.10526316	-0.00000028	0.00004425	0.00068166
1.26315789	0.21052632	-0.00000036	0.00005105	0.00068416
1.26315789	0.31578947	-0.00000045	0.00005211	0.00068910
1.26315789	0.42105263	-0.00000059	0.00005262	0.00069635
1.26315789	0.52631579	-0.00000080	0.00005325	0.00070566
1.26315789	0.63157895	-0.00000110	0.00005405	0.00071667
1.26315789	0.73684211	-0.00000152	0.00005500	0.00072883
1.26315789	0.84210526	-0.00000211	0.00005605	0.00074133
1.26315789	0.94736842	-0.00000291	0.00005715	0.00075297
1.26315789	1.05263158	-0.00000395	0.00005820	0.00076203
1.26315789	1.15789474	-0.00000495	0.00005906	0.00076601
1.26315789	1.26315789	-0.00000200	0.00005953	0.00076141
1.26315789	1.36842105	0.00004530	0.00005933	0.00074336
1.26315789	1.47368421	0.00048497	0.00005807	0.00070544
1.26315789	1.57894737	0.00377118	0.00005524	0.00063980
1.26315789	1.68421053	0.02344114	0.00005017	0.00053818
1.26315789	1.78947368	0.11355327	0.00004191	0.00039465
1.26315789	1.89473684	0.40651048	0.00002827	0.00021054
1.26315789	2.00000000	1.00000000	0.00000000	0.00000000
1.36842105	0.00000000	0.00000000	0.00000000	0.00068409
1.36842105	0.10526316	-0.00000034	0.00004440	0.00068409
1.36842105	0.21052632	-0.00000044	0.00005124	0.00068688
1.36842105	0.31578947	-0.00000055	0.00005232	0.00069244
1.36842105	0.42105263	-0.00000073	0.00005288	0.00070069
1.36842105	0.52631579	-0.00000098	0.00005359	0.00071151
1.36842105	0.63157895	-0.00000136	0.00005450	0.00072471
1.36842105	0.73684211	-0.00000190	0.00005563	0.00073997
1.36842105	0.84210526	-0.00000265	0.00005693	0.00075678
1.36842105	0.94736842	-0.00000370	0.00005837	0.00077434
1.36842105	1.05263158	-0.00000511	0.00005989	0.00079138
1.36842105	1.15789474	-0.00000666	0.00006138	0.00080586
1.36842105	1.26315789	-0.00000450	0.00006269	0.00081454
1.36842105	1.36842105	0.00004168	0.00006356	0.00081236
1.36842105	1.47368421	0.00047983	0.00006357	0.00079155
1.36842105	1.57894737	0.00376420	0.00006211	0.00074085
1.36842105	1.68421053	0.02343228	0.00005821	0.00064562
1.36842105	1.78947368	0.11354327	0.00005032	0.00049075
1.36842105	1.89473684	0.40650227	0.00003500	0.00026974
1.36842105	2.00000000	1.00000000	0.00000000	0.00000000
1.47368421	0.00000000	0.00000000	0.00000000	0.00068683
1.47368421	0.10526316	-0.00000036	0.00004458	0.00068683
1.47368421	0.21052632	-0.00000047	0.00005145	0.00068996
1.47368421	0.31578947	-0.00000059	0.00005256	0.00069621
1.47368421	0.42105263	-0.00000078	0.00005317	0.00070562
1.47368421	0.52631579	-0.00000106	0.00005397	0.00071820
1.47368421	0.63157895	-0.00000147	0.00005503	0.00073396
1.47368421	0.73684211	-0.00000207	0.00005636	0.00075288
1.47368421	0.84210526	-0.00000292	0.00005795	0.00077488
1.47368421	0.94736842	-0.00000413	0.00005980	0.00079971
1.47368421	1.05263158	-0.00000581	0.00006190	0.00082683
1.47368421	1.15789474	-0.00000781	0.00006420	0.00085508
1.47368421	1.26315789	-0.00000642	0.00006660	0.00088217
1.47368421	1.36842105	0.00003846	0.00006894	0.00090362
1.47368421	1.47368421	0.00047446	0.00007084	0.00091108
1.47368421	1.57894737	0.00375523	0.00007164	0.00088978
1.47368421	1.68421053	0.02341688	0.00007006	0.00081555
1.47368421	1.78947368	0.11351691	0.00006360	0.00065526
1.47368421	1.89473684	0.40646964	0.00004641	0.00037904
1.47368421	2.00000000	1.00000000	0.00000000	0.00000000
1.57894737	0.00000000	0.00000000	0.00000000	0.00068957
1.57894737	0.10526316	-0.00000034	0.00004475	0.00068957
1.57894737	0.21052632	-0.00000044	0.00005165	0.00069303
1.57894737	0.31578947	-0.00000056	0.00005279	0.00070000
1.57894737	0.42105263	-0.00000074	0.00005346	0.00071058
1.57894737	0.52631579	-0.00000101	0.00005435	0.00072496
1.57894737	0.63157895	-0.00000141	0.00005555	0.00074337
1.57894737	0.73684211	-0.00000199	0.00005709	0.00076612
1.57894737	0.84210526	-0.00000284	0.00005899	0.00079363
1.57894737	0.94736842	-0.00000407	0.00006128	0.00082638
1.57894737	1.05263158	-0.00000584	0.00006401	0.00086484
1.57894737	1.15789474	-0.00000809	0.00006721	0.00090930
1.57894737	1.26315789	-0.00000726	0.00007090	0.00095937
1.57894737	1.36842105	0.00003634	0.00007507	0.00101289
1.57894737	1.47368421	0.00046922	0.00007953	0.00106349
1.57894737	1.57894737	0.00374065	0.00008376	0.00109554
1.57894737	1.68421053	0.02337087	0.00008637	0.00107523
1.57894737	1.78947368	0.11338588	0.00008374	0.00093847
1.57894737	1.89473684	0.40624949	0.00006560	0.00059314
1.57894737	2.00000000	1.00000000	0.00000000	0.00000000
1.68421053	0.00000000	0.00000000	0.00000000	0.00069197
1.68421053	0.10526316	-0.00000028	0.00004484	0.00069197
1.68421053	0.21052632	-0.00000036	0.00005175	0.00069572
1.68421053	0.31578947	-0.00000046	0.00005291	0.00070333
1.68421053	0.42105263	-0.00000060	0.00005363	0.00071498
1.68421053	0.52631579	-0.00000083	0.00005461	0.00073097
1.68421053	0.63157895	-0.00000117	0.00005593	0.00075177
1.68421053	0.73684211	-0.00000166	0.00005765	0.00077805
1.68421053	0.84210526	-0.00000239	0.00005983	0.00081072
1.68421053	0.94736842	-0.00000348	0.00006252	0.00085104
1.68421053	1.05263158	-0.00000508	0.00006584	0.00090071
1.68421053	1.15789474	-0.00000718	0.00006992	0.00096195
1.68421053	1.26315789	-0.00000642	0.00007495	0.00103740
1.68421053	1.36842105	0.00003607	0.00008111	0.00112965
1.68421053	1.47368421	0.00046198	0.00008863	0.00123918
1.68421053	1.57894737	0.00369329	0.00009749	0.00135856
1.68421053	1.68421053	0.02313226	0.00010687	0.00145572
1.68421053	1.78947368	0.11252933	0.00011256	0.00143393
1.68421053	1.89473684	0.40459844	0.00009745	0.00105743
1.68421053	2.00000000	1.00000000	0.00000000	0.00000000
1.78947368	0.00000000	0.00000000	0.00000000	0.00069375
1.78947368	0.10526316	-0.00000018	0.00004430	0.00069375
1.78947368	0.21052632	-0.00000024	0.00005106	0.00069773
1.78947368	0.31578947	-0.00000030	0.00005221	0.00070581
1.78947368	0.42105263	-0.00000040	0.00005295	0.00071825
1.78947368	0.52631579	-0.00000055	0.00005397	0.00073547
1.78947368	0.63157895	-0.00000078	0.00005536	0.00075811
1.78947368	0.73684211	-0.00000111	0.00005719	0.00078709
1.78947368	0.84210526	-0.00000161	0.00005953	0.00082379
1.78947368	0.94736842	-0.00000237	0.00006249	0.00087015
1.78947368	1.05263158	-0.00000350	0.00006621	0.00092905
1.78947368	1.15789474	-0.00000499	0.00007093	0.00100469
1.78947368	1.26315789	-0.00000369	0.00007697	0.00110331
1.78947368	1.36842105	0.00003647	0.00008481	0.00123417
1.78947368	1.47368421	0.00043419	0.00009515	0.00141059
1.78947368	1.57894737	0.00346228	0.00010895	0.00164939
1.78947368	1.68421053	0.02181797	0.00012706	0.00196056
1.78947368	1.78947368	0.10734792	0.00014703	0.00228635
1.78947368	1.89473684	0.39335125	0.00014506	0.00219625
1.78947368	2.00000000	1.00000000	0.00000000	0.00000000
1.89473684	0.00000000	0.00000000	0.00000000	0.00069470
1.89473684	0.10526316	-0.00000007	0.00003883	0.00069470
1.89473684	0.21052632	-0.00000010	0.00004440	0.00069880
1.89473684	0.31578947	-0.00000012	0.00004535	0.00070714
1.89473684	0.42105263	-0.00000016	0.00004599	0.00072001
1.89473684	0.52631579	-0.00000022	0.00004689	0.00073788
1.89473684	0.63157895	-0.00000031	0.00004814	0.00076151
1.89473684	0.73684211	-0.00000045	0.00004977	0.00079197
1.89473684	0.84210526	-0.00000065	0.00005188	0.00083089
1.89473684	0.94736842	-0.00000096	0.00005457	0.00088063
1.89473684	1.05263158	-0.00000143	0.00005799	0.00094480
1.89473684	1.15789474	-0.00000197	0.00006240	0.00102894
1.89473684	1.26315789	-0.00000026	0.00006816	0.00114193
1.89473684	1.36842105	0.00002942	0.00007586	0.00129867
1.89473684	1.47368421	0.00031507	0.00008649	0.00152570
1.89473684	1.57894737	0.00250614	0.00010173	0.00187431
1.89473684	1.68421053	0.01609329	0.00012445	0.00245402
1.89473684	1.78947368	0.08240154	0.00015713	0.00350564
1.89473684	1.89473684	0.32753867	0.00018032	0.00508321
1.89473684	2.00000000	1.00000000	0.00000000	0.00000000
2.00000000	0.00000000	0.00000000	0.00000000	0.00069391
2.00000000	0.10526316	0.00000000	0.00000000	0.00069470
2.00000000	0.21052632	0.00000000	0.00000000	0.00069880
2.00000000	0.31578947	0.00000000	0.00000000	0.00070714
2.00000000	0.42105263	0.00000000	0.00000000	0.00072001
2.00000000	0.52631579	0.00000000	0.00000000	0.00073788
2.00000000	0.63157895	0.00000000	0.00000000	0.00076151
2.00000000	0.73684211	0.00000000	0.00000000	0.00079197
2.00000000	0.84210526	0.00000000	0.00000000	0.00083089
2.00000000	0.94736842	0.00000000	0.00000000	0.00088063
2.00000000	1.05263158	0.00000000	0.00000000	0.00094480
2.00000000	1.15789474	0.00000000	0.00000000	0.00102894
2.00000000	1.26315789	0.00000000	0.00000000	0.00114193
2.00000000	1.36842105	0.00000000	0.00000000	0.00129867
2.00000000	1.47368421	0.00000000	0.00000000	0.00152570
2.00000000	1.57894737	0.00000000	0.00000000	0.00187431
2.00000000	1.68421053	0.00000000	0.00000000	0.00245402
2.00000000	1.78947368	0.00000000	0.00000000	0.00350564
2.00000000	1.89473684	0.00000000	0.00000000	0.00508321
2.00000000	2.00000000	1.00000000	0.00000000	0.00000000
